----- GAMESS execution script 'rungms' -----
This job is running on host andre-mint
under operating system Linux at Qua Mar 9 22:49:21 WET 2016
Available scratch disk space (Kbyte units) at beginning of the job is
Filesystem     1K-blocks     Used Available Use% Mounted on
/dev/sda5       72784020 71004628    281428 100% /home
GAMESS temporary binary files will be written to .
GAMESS supplementary output files will be written to .
Copying input file 7_CH3O-_b.inp to your run's scratch directory...

 Distributed Data Interface kickoff program.
 Initiating 1 compute processes on 1 nodes to run the following command:
 /home/andrepd/Development/gamess/gamess//gamess.69.x 7_CH3O-_b 

          ******************************************************
          *         GAMESS VERSION =  5 DEC 2014 (R1)          *
          *             FROM IOWA STATE UNIVERSITY             *
          * M.W.SCHMIDT, K.K.BALDRIDGE, J.A.BOATZ, S.T.ELBERT, *
          *   M.S.GORDON, J.H.JENSEN, S.KOSEKI, N.MATSUNAGA,   *
          *          K.A.NGUYEN, S.J.SU, T.L.WINDUS,           *
          *       TOGETHER WITH M.DUPUIS, J.A.MONTGOMERY       *
          *         J.COMPUT.CHEM.  14, 1347-1363(1993)        *
          **************** 64 BIT LINUX VERSION ****************

  SINCE 1993, STUDENTS AND POSTDOCS WORKING AT IOWA STATE UNIVERSITY
  AND ALSO IN THEIR VARIOUS JOBS AFTER LEAVING ISU HAVE MADE IMPORTANT
  CONTRIBUTIONS TO THE CODE:
     IVANA ADAMOVIC, CHRISTINE AIKENS, YURI ALEXEEV, POOJA ARORA,
     ANDREY ASADCHEV, ROB BELL, PRADIPTA BANDYOPADHYAY, JONATHAN BENTZ,
     BRETT BODE, KURT BRORSEN, CALEB CARLIN, GALINA CHABAN, WEI CHEN,
     CHEOL HO CHOI, PAUL DAY, ALBERT DEFUSCO, NUWAN DESILVA, TIM DUDLEY,
     DMITRI FEDOROV, GRAHAM FLETCHER, MARK FREITAG, KURT GLAESEMANN,
     DAN KEMP, GRANT MERRILL, NORIYUKI MINEZAWA, JONATHAN MULLIN,
     TAKESHI NAGATA, SEAN NEDD, HEATHER NETZLOFF, BOSILJKA NJEGIC, RYAN OLSON,
     MIKE PAK, SPENCER PRUITT, LUKE ROSKOP, JIM SHOEMAKER, LYUDMILA SLIPCHENKO,
     TONY SMITH, SAROM SOK, JIE SONG, TETSUYA TAKETSUGU, SIMON WEBB,
     PENG XU, SOOHAENG YOO, FEDERICO ZAHARIEV

  ADDITIONAL CODE HAS BEEN PROVIDED BY COLLABORATORS IN OTHER GROUPS:
     IOWA STATE UNIVERSITY:
          JOE IVANIC, AARON WEST, LAIMUTIS BYTAUTAS, KLAUS RUEDENBERG
     UNIVERSITY OF TOKYO: KIMIHIKO HIRAO, TAKAHITO NAKAJIMA,
          TAKAO TSUNEDA, MUNEAKI KAMIYA, SUSUMU YANAGISAWA,
          KIYOSHI YAGI, MAHITO CHIBA, SEIKEN TOKURA, NAOAKI KAWAKAMI
     UNIVERSITY OF AARHUS: FRANK JENSEN
     UNIVERSITY OF IOWA: VISVALDAS KAIRYS, HUI LI
     NATIONAL INST. OF STANDARDS AND TECHNOLOGY: WALT STEVENS, DAVID GARMER
     UNIVERSITY OF PISA: BENEDETTA MENNUCCI, JACOPO TOMASI
     UNIVERSITY OF MEMPHIS: HENRY KURTZ, PRAKASHAN KORAMBATH
     UNIVERSITY OF ALBERTA: TOBY ZENG, MARIUSZ KLOBUKOWSKI
     UNIVERSITY OF NEW ENGLAND: MARK SPACKMAN
     MIE UNIVERSITY: HIROAKI UMEDA
     NAT. INST. OF ADVANCED INDUSTRIAL SCIENCE AND TECHNOLOGY: KAZUO KITAURA
     MICHIGAN STATE UNIVERSITY:
          KAROL KOWALSKI, MARTA WLOCH, JEFFREY GOUR, JESSE LUTZ,
          WEI LI, PIOTR PIECUCH
     UNIVERSITY OF SILESIA: MONIKA MUSIAL, STANISLAW KUCHARSKI
     FACULTES UNIVERSITAIRES NOTRE-DAME DE LA PAIX:
          OLIVIER QUINET, BENOIT CHAMPAGNE
     UNIVERSITY OF CALIFORNIA - SANTA BARBARA: BERNARD KIRTMAN
     INSTITUTE FOR MOLECULAR SCIENCE:
          KAZUYA ISHIMURA, MICHIO KATOUDA, AND SHIGERU NAGASE
     UNIVERSITY OF NOTRE DAME: ANNA POMOGAEVA, DAN CHIPMAN
     KYUSHU UNIVERSITY:
          HARUYUKI NAKANO,
          FENG LONG GU, JACEK KORCHOWIEC, MARCIN MAKOWSKI, AND YURIKO AOKI,
          HIROTOSHI MORI AND EISAKU MIYOSHI
     PENNSYLVANIA STATE UNIVERSITY:
          TZVETELIN IORDANOV, CHET SWALINA, JONATHAN SKONE,
          SHARON HAMMES-SCHIFFER
     WASEDA UNIVERSITY:
          MASATO KOBAYASHI, TOMOKO AKAMA, TSUGUKI TOUMA,
          TAKESHI YOSHIKAWA, YASUHIRO IKABATA, HIROMI NAKAI
     NANJING UNIVERSITY: SHUHUA LI
     UNIVERSITY OF NEBRASKA:
          PEIFENG SU, DEJUN SI, NANDUN THELLAMUREGE, YALI WANG, HUI LI
     UNIVERSITY OF ZURICH: ROBERTO PEVERATI, KIM BALDRIDGE
     N. COPERNICUS UNIVERSITY AND JACKSON STATE UNIVERSITY:
          MARIA BARYSZ
     UNIVERSITY OF COPENHAGEN: CASPER STEINMANN
     TOKYO INSTITUTE OF TECHNOLOGY: HIROYA NAKATA
     NAGOYA UNIVERSITY: YOSHIO NISHIMOTO, STEPHAN IRLE

 EXECUTION OF GAMESS BEGUN Wed Mar  9 22:49:21 2016

            ECHO OF THE FIRST FEW INPUT CARDS -
 INPUT CARD>!   File created by MacMolPlt 7.6.2                                             
 INPUT CARD> $CONTRL SCFTYP=UHF RUNTYP=OPTIMIZE MAXIT=200 MULT=1 ICHARG=-1 $END             
 INPUT CARD> $BASIS GBASIS=N311 NGAUSS=6 NDFUNC=2 NPFUNC=1 DIFFSP=.TRUE. DIFFS=.TRUE. $END  
 INPUT CARD>! $SCF DIRSCF=.TRUE. $END                                                       
 INPUT CARD> $DATA                                                                          
 INPUT CARD>CH3OH                                                                           
 INPUT CARD>C1                                                                              
 INPUT CARD>C  6.0  0.00  0.00  0.00                                                        
 INPUT CARD>O  8.0  1.00  0.00  0.20                                                        
 INPUT CARD>H  1.0  -1.00  0.00  -1.00                                                      
 INPUT CARD>H  1.0  0.00  1.00  1.00                                                        
 INPUT CARD>H  1.0  0.00  -1.00  -1.00                                                      
 INPUT CARD> $END                                                                           
 INPUT CARD>!H  1.0  2.00  0.00  1.00                                                       
    1000000 WORDS OF MEMORY AVAILABLE

     BASIS OPTIONS
     -------------
     GBASIS=N311         IGAUSS=       6      POLAR=POPN311 
     NDFUNC=       2     NFFUNC=       0     DIFFSP=       T
     NPFUNC=       1      DIFFS=       T     BASNAM=        
     SPLIT2=     2.00000000     0.50000000


     RUN TITLE
     ---------
 CH3OH                                                                           

 THE POINT GROUP OF THE MOLECULE IS C1      
 THE ORDER OF THE PRINCIPAL AXIS IS     0

 ATOM      ATOMIC                      COORDINATES (BOHR)
           CHARGE         X                   Y                   Z
 C           6.0     0.0000000000        0.0000000000        0.0000000000
 O           8.0     1.8897259877        0.0000000000        0.3779451975
 H           1.0    -1.8897259877        0.0000000000       -1.8897259877
 H           1.0     0.0000000000        1.8897259877        1.8897259877
 H           1.0     0.0000000000       -1.8897259877       -1.8897259877

          INTERNUCLEAR DISTANCES (ANGS.)
          ------------------------------

                1 C          2 O          3 H          4 H          5 H     

   1 C       0.0000000    1.0198039 *  1.4142136 *  1.4142136 *  1.4142136 *
   2 O       1.0198039 *  0.0000000    2.3323808 *  1.6248077 *  1.8547237 *
   3 H       1.4142136 *  2.3323808 *  0.0000000    2.4494897 *  1.4142136 *
   4 H       1.4142136 *  1.6248077 *  2.4494897 *  0.0000000    2.8284271 *
   5 H       1.4142136 *  1.8547237 *  1.4142136 *  2.8284271 *  0.0000000  

  * ... LESS THAN  3.000


     ATOMIC BASIS SET
     ----------------
 THE CONTRACTED PRIMITIVE FUNCTIONS HAVE BEEN UNNORMALIZED
 THE CONTRACTED BASIS FUNCTIONS ARE NOW NORMALIZED TO UNITY

  SHELL TYPE  PRIMITIVE        EXPONENT          CONTRACTION COEFFICIENT(S)

 C         

      1   S       1          4563.2400000    0.001966650249
      1   S       2           682.0240000    0.015230601932
      1   S       3           154.9730000    0.076126909656
      1   S       4            44.4553000    0.260801033080
      1   S       5            13.0290000    0.616462078191
      1   S       6             1.8277300    0.221006028032

      2   L       7            20.9642000    0.114660080729    0.040248692673
      2   L       8             4.8033100    0.919999647749    0.237593956746
      2   L       9             1.4593300   -0.003030682134    0.815853851473

      3   L      10             0.4834560    1.000000000000    1.000000000000

      4   L      11             0.1455850    1.000000000000    1.000000000000

      5   L      12             0.0438000    1.000000000000    1.000000000000

      6   D      13             1.2520000    1.000000000000

      7   D      14             0.3130000    1.000000000000

 O         

      8   S      15          8588.5000000    0.001895150083
      8   S      16          1297.2300000    0.014385900631
      8   S      17           299.2960000    0.070732003103
      8   S      18            87.3771000    0.240001010530
      8   S      19            25.6789000    0.594797026097
      8   S      20             3.7400400    0.280802012320

      9   L      21            42.1175000    0.113889012440    0.036511397380
      9   L      22             9.6283700    0.920811100576    0.237152982984
      9   L      23             2.8533200   -0.003274470358    0.819701941186

     10   L      24             0.9056610    1.000000000000    1.000000000000

     11   L      25             0.2556110    1.000000000000    1.000000000000

     12   L      26             0.0845000    1.000000000000    1.000000000000

     13   D      27             2.5840000    1.000000000000

     14   D      28             0.6460000    1.000000000000

 H         

     15   S      29            33.8650000    0.025493814541
     15   S      30             5.0947900    0.190373108582
     15   S      31             1.1587900    0.852161486043

     16   S      32             0.3258400    1.000000000000

     17   S      33             0.1027410    1.000000000000

     18   S      34             0.0360000    1.000000000000

     19   P      35             0.7500000    1.000000000000

 H         

     20   S      36            33.8650000    0.025493814541
     20   S      37             5.0947900    0.190373108582
     20   S      38             1.1587900    0.852161486043

     21   S      39             0.3258400    1.000000000000

     22   S      40             0.1027410    1.000000000000

     23   S      41             0.0360000    1.000000000000

     24   P      42             0.7500000    1.000000000000

 H         

     25   S      43            33.8650000    0.025493814541
     25   S      44             5.0947900    0.190373108582
     25   S      45             1.1587900    0.852161486043

     26   S      46             0.3258400    1.000000000000

     27   S      47             0.1027410    1.000000000000

     28   S      48             0.0360000    1.000000000000

     29   P      49             0.7500000    1.000000000000

 TOTAL NUMBER OF BASIS SET SHELLS             =   29
 NUMBER OF CARTESIAN GAUSSIAN BASIS FUNCTIONS =   79
 NUMBER OF ELECTRONS                          =   18
 CHARGE OF MOLECULE                           =   -1
 SPIN MULTIPLICITY                            =    1
 NUMBER OF OCCUPIED ORBITALS (ALPHA)          =    9
 NUMBER OF OCCUPIED ORBITALS (BETA )          =    9
 TOTAL NUMBER OF ATOMS                        =    5
 THE NUCLEAR REPULSION ENERGY IS       39.1229446530

     $CONTRL OPTIONS
     ---------------
 SCFTYP=UHF          RUNTYP=OPTIMIZE     EXETYP=RUN     
 MPLEVL=       0     CITYP =NONE         CCTYP =NONE         VBTYP =NONE    
 DFTTYP=NONE         TDDFT =NONE    
 MULT  =       1     ICHARG=      -1     NZVAR =       0     COORD =UNIQUE  
 PP    =NONE         RELWFN=NONE         LOCAL =NONE         NUMGRD=       F
 ISPHER=      -1     NOSYM =       0     MAXIT =     200     UNITS =ANGS    
 PLTORB=       F     MOLPLT=       F     AIMPAC=       F     FRIEND=        
 NPRINT=       7     IREST =       0     GEOM  =INPUT   
 NORMF =       0     NORMP =       0     ITOL  =      20     ICUT  =       9
 INTTYP=BEST         GRDTYP=BEST         QMTTOL= 1.0E-06

     $SYSTEM OPTIONS
     ---------------
  REPLICATED MEMORY=     1000000 WORDS (ON EVERY NODE).
 DISTRIBUTED MEMDDI=           0 MILLION WORDS IN AGGREGATE,
 MEMDDI DISTRIBUTED OVER   1 PROCESSORS IS           0 WORDS/PROCESSOR.
 TOTAL MEMORY REQUESTED ON EACH PROCESSOR=     1000000 WORDS.
 TIMLIM=      525600.00 MINUTES, OR     365.0 DAYS.
 PARALL= F  BALTYP=  DLB     KDIAG=    0  COREFL= F
 MXSEQ2=     300 MXSEQ3=     150  mem10=         0

          ----------------
          PROPERTIES INPUT
          ----------------

     MOMENTS            FIELD           POTENTIAL          DENSITY
 IEMOM =       1   IEFLD =       0   IEPOT =       0   IEDEN =       0
 WHERE =COMASS     WHERE =NUCLEI     WHERE =NUCLEI     WHERE =NUCLEI  
 OUTPUT=BOTH       OUTPUT=BOTH       OUTPUT=BOTH       OUTPUT=BOTH    
 IEMINT=       0   IEFINT=       0                     IEDINT=       0
                                                       MORB  =       0
          EXTRAPOLATION IN EFFECT
          SOSCF IN EFFECT
          DIIS or SOSCF will be reset if energy rises
 ORBITAL PRINTING OPTION: NPREO=     1    79     2     1

     -------------------------------
     INTEGRAL TRANSFORMATION OPTIONS
     -------------------------------
     NWORD  =            0
     CUTOFF = 1.0E-09     MPTRAN =       0
     DIRTRF =       F     AOINTS =DUP     

          ----------------------
          INTEGRAL INPUT OPTIONS
          ----------------------
 NOPK  =       1 NORDER=       0 SCHWRZ=       F

     ------------------------------------------
     THE POINT GROUP IS C1 , NAXIS= 0, ORDER= 1
     ------------------------------------------

     DIMENSIONS OF THE SYMMETRY SUBSPACES ARE
 A   =   79

 ..... DONE SETTING UP THE RUN .....
 STEP CPU TIME =     0.00 TOTAL CPU TIME =        0.0 (    0.0 MIN)
 TOTAL WALL CLOCK TIME=        0.0 SECONDS, CPU UTILIZATION IS   0.00%


          -----------------------------
          STATIONARY POINT LOCATION RUN
          -----------------------------

 OBTAINING INITIAL HESSIAN, HESS=GUESS   
 CARTESIAN COORDINATE OPTIMIZATION USING BADGER'S RULE FORCE CONSTANT GUESS

          PARAMETERS CONTROLLING GEOMETRY SEARCH ARE
          METHOD =QA                  UPHESS =BFGS    
          NNEG   =         0          NFRZ   =         0
          NSTEP  =        50          IFOLOW =         1
          HESS   =GUESS               RESTAR =         F
          IHREP  =         0          HSSEND =         F
          NPRT   =         0          NPUN   =         0
          OPTTOL = 1.000E-04          RMIN   = 1.500E-03
          RMAX   = 1.000E-01          RLIM   = 7.000E-02
          DXMAX  = 3.000E-01          PURIFY =         F
          MOVIE  =         F          TRUPD  =         T
          TRMAX  = 5.000E-01          TRMIN  = 5.000E-02
          ITBMAT =         5          STPT   =         F
          STSTEP = 1.000E-02          PROJCT=          T

 BEGINNING GEOMETRY SEARCH POINT NSERCH=   0 ...

 COORDINATES OF ALL ATOMS ARE (ANGS)
   ATOM   CHARGE       X              Y              Z
 ------------------------------------------------------------
 C           6.0   0.0000000000   0.0000000000   0.0000000000
 O           8.0   1.0000000000   0.0000000000   0.2000000000
 H           1.0  -1.0000000000   0.0000000000  -1.0000000000
 H           1.0   0.0000000000   1.0000000000   1.0000000000
 H           1.0   0.0000000000  -1.0000000000  -1.0000000000

          ********************
          1 ELECTRON INTEGRALS
          ********************
 ...... END OF ONE-ELECTRON INTEGRALS ......
 STEP CPU TIME =     0.01 TOTAL CPU TIME =        0.0 (    0.0 MIN)
 TOTAL WALL CLOCK TIME=        0.0 SECONDS, CPU UTILIZATION IS  50.00%

          -------------
          GUESS OPTIONS
          -------------
          GUESS =HUCKEL            NORB  =       0          NORDER=       0
          MIX   =       F          PRTMO =       F          PUNMO =       F
          TOLZ  = 1.0E-08          TOLE  = 1.0E-05
          SYMDEN=       F          PURIFY=       F

 INITIAL GUESS ORBITALS GENERATED BY HUCKEL   ROUTINE.
 HUCKEL GUESS REQUIRES     49563 WORDS.

 SYMMETRIES FOR INITIAL GUESS ORBITALS FOLLOW.  ALPHA SET(S).
     9 ORBITALS ARE OCCUPIED (    2 CORE ORBITALS).
     3=A        4=A        5=A        6=A        7=A        8=A        9=A   
    10=A       11=A       12=A       13=A       14=A       15=A       16=A   
    17=A       18=A       19=A   

 SYMMETRIES FOR INITIAL GUESS ORBITALS FOLLOW.   BETA SET(S).
     9 ORBITALS ARE OCCUPIED (    2 CORE ORBITALS).
     3=A        4=A        5=A        6=A        7=A        8=A        9=A   
    10=A       11=A       12=A       13=A       14=A       15=A       16=A   
    17=A       18=A       19=A   
 ...... END OF INITIAL ORBITAL SELECTION ......
 STEP CPU TIME =     0.01 TOTAL CPU TIME =        0.0 (    0.0 MIN)
 TOTAL WALL CLOCK TIME=        0.0 SECONDS, CPU UTILIZATION IS  66.67%

                    ----------------------
                    AO INTEGRAL TECHNOLOGY
                    ----------------------
     S,P,L SHELL ROTATED AXIS INTEGRALS, REPROGRAMMED BY
        KAZUYA ISHIMURA (IMS) AND JOSE SIERRA (SYNSTAR).
     S,P,D,L SHELL ROTATED AXIS INTEGRALS PROGRAMMED BY
        KAZUYA ISHIMURA (INSTITUTE FOR MOLECULAR SCIENCE).
     S,P,D,F,G SHELL TO TOTAL QUARTET ANGULAR MOMENTUM SUM 5,
        ERIC PROGRAM BY GRAHAM FLETCHER (ELORET AND NASA ADVANCED
        SUPERCOMPUTING DIVISION, AMES RESEARCH CENTER).
     S,P,D,F,G,L SHELL GENERAL RYS QUADRATURE PROGRAMMED BY
        MICHEL DUPUIS (PACIFIC NORTHWEST NATIONAL LABORATORY).

          --------------------
          2 ELECTRON INTEGRALS
          --------------------

 THE -PK- OPTION IS OFF, THE INTEGRALS ARE NOT IN SUPERMATRIX FORM.
 STORING   15000 INTEGRALS/RECORD ON DISK, USING 12 BYTES/INTEGRAL.
 TWO ELECTRON INTEGRAL EVALUATION REQUIRES   90831 WORDS OF MEMORY.
 II,JST,KST,LST =  1  1  1  1 NREC =         1 INTLOC =    1
 II,JST,KST,LST =  2  1  1  1 NREC =         1 INTLOC =    2
 II,JST,KST,LST =  3  1  1  1 NREC =         1 INTLOC =   34
 II,JST,KST,LST =  4  1  1  1 NREC =         1 INTLOC =  214
 II,JST,KST,LST =  5  1  1  1 NREC =         1 INTLOC =  776
 II,JST,KST,LST =  6  1  1  1 NREC =         1 INTLOC = 2074
 II,JST,KST,LST =  7  1  1  1 NREC =         1 INTLOC = 5929
 II,JST,KST,LST =  8  1  1  1 NREC =         1 INTLOC =14065
 II,JST,KST,LST =  9  1  1  1 NREC =         2 INTLOC = 6572
 II,JST,KST,LST = 10  1  1  1 NREC =         4 INTLOC =13107
 II,JST,KST,LST = 11  1  1  1 NREC =         8 INTLOC = 4533
 II,JST,KST,LST = 12  1  1  1 NREC =        12 INTLOC =14023
 II,JST,KST,LST = 13  1  1  1 NREC =        18 INTLOC =14871
 II,JST,KST,LST = 14  1  1  1 NREC =        30 INTLOC =14598
 II,JST,KST,LST = 15  1  1  1 NREC =        47 INTLOC = 4584
 II,JST,KST,LST = 16  1  1  1 NREC =        50 INTLOC =13357
 II,JST,KST,LST = 17  1  1  1 NREC =        54 INTLOC =12952
 II,JST,KST,LST = 18  1  1  1 NREC =        59 INTLOC =  961
 II,JST,KST,LST = 19  1  1  1 NREC =        63 INTLOC = 7470
 II,JST,KST,LST = 20  1  1  1 NREC =        77 INTLOC =  597
 II,JST,KST,LST = 21  1  1  1 NREC =        86 INTLOC = 2279
 II,JST,KST,LST = 22  1  1  1 NREC =        95 INTLOC =10640
 II,JST,KST,LST = 23  1  1  1 NREC =       105 INTLOC =10287
 II,JST,KST,LST = 24  1  1  1 NREC =       116 INTLOC = 1268
 II,JST,KST,LST = 25  1  1  1 NREC =       149 INTLOC =10302
 II,JST,KST,LST = 26  1  1  1 NREC =       161 INTLOC =10988
 II,JST,KST,LST = 27  1  1  1 NREC =       174 INTLOC = 5705
 II,JST,KST,LST = 28  1  1  1 NREC =       187 INTLOC = 7998
 II,JST,KST,LST = 29  1  1  1 NREC =       201 INTLOC = 2865
 TOTAL NUMBER OF NONZERO TWO-ELECTRON INTEGRALS =             3654618
        244 INTEGRAL RECORDS WERE STORED ON DISK FILE  8.
  ...... END OF TWO-ELECTRON INTEGRALS .....
 STEP CPU TIME =     0.23 TOTAL CPU TIME =        0.2 (    0.0 MIN)
 TOTAL WALL CLOCK TIME=        0.3 SECONDS, CPU UTILIZATION IS  96.15%

          ---------------------------
                  UHF SCF CALCULATION
          ---------------------------

     NUCLEAR ENERGY =        39.1229446530
     MAXIT =200     NPUNCH=  2     MULT=  1
     EXTRAP=T  DAMP=F  SHIFT=F  RSTRCT=F  DIIS=F  SOSCF=T
     DENSITY MATRIX CONV=  1.00E-05
     SOSCF WILL OPTIMIZE     630 ALPHA AND     630 BETA ROTATION ANGLES.
     SOGTOL= 2.500E-01
     MEMORY REQUIRED FOR UHF/ROHF ITERS=    102494 WORDS.

 ITER EX      TOTAL ENERGY        E CHANGE  DENSITY CHANGE    ORB. GRAD 
   1  0     -113.3092369172  -113.3092369172   0.300104539   0.000000000
          ---------------START SECOND ORDER SCF---------------
   2  1     -114.0367968054    -0.7275598882   0.614017815   0.042211122
   3  2     -114.0770670056    -0.0402702001   0.073651889   0.022180300
   4  3     -114.0878550776    -0.0107880721   0.055391773   0.005898139
   5  4     -114.0892762905    -0.0014212129   0.057919050   0.003579159
   6  5     -114.0899640237    -0.0006877332   0.045980821   0.001812477
   7  6     -114.0901121925    -0.0001481689   0.030931096   0.000920749
   8  7     -114.0901675641    -0.0000553715   0.008070846   0.000394033
   9  8     -114.0901753808    -0.0000078167   0.002784300   0.000157126
  10  9     -114.0901768758    -0.0000014950   0.001195112   0.000066854
  11 10     -114.0901771679    -0.0000002921   0.000758102   0.000031159
  12 11     -114.0901772159    -0.0000000479   0.000105450   0.000010221
  13 12     -114.0901772214    -0.0000000055   0.000029790   0.000003025
  14 13     -114.0901772220    -0.0000000007   0.000019828   0.000000836
  15 14     -114.0901772221    -0.0000000001   0.000009703   0.000000318

          -----------------
          DENSITY CONVERGED
          -----------------
     TIME TO FORM FOCK OPERATORS=       1.1 SECONDS (       0.1 SEC/ITER)
     TIME TO SOLVE SCF EQUATIONS=       0.0 SECONDS (       0.0 SEC/ITER)

 FINAL UHF ENERGY IS     -114.0901772221 AFTER  15 ITERATIONS

          --------------------
          SPIN SZ   =    0.000
          S-SQUARED =   -0.000
          --------------------

  ----- ALPHA SET ----- 

          ------------
          EIGENVECTORS
          ------------

                      1          2          3          4          5
                  -20.3707   -11.1658    -1.3671    -0.5918    -0.5492
                     A          A          A          A          A   
    1  C  1  S    0.000036   0.563413  -0.073015  -0.075731  -0.012342
    2  C  1  S   -0.000135   0.465619  -0.112496  -0.122953  -0.020116
    3  C  1  X    0.000246   0.000957   0.125081   0.008571   0.016801
    4  C  1  Y    0.000001  -0.000643   0.000178  -0.014699   0.092450
    5  C  1  Z    0.000045   0.000095   0.024805  -0.034604   0.111459
    6  C  1  S    0.001310   0.006174   0.241171   0.397927   0.054821
    7  C  1  X    0.000999   0.001396   0.123498   0.012488   0.027827
    8  C  1  Y   -0.000025   0.000426  -0.001005  -0.022993   0.138637
    9  C  1  Z    0.000179   0.000363   0.024171  -0.053014   0.167701
   10  C  1  S    0.000398   0.006947   0.115975   0.135151   0.047206
   11  C  1  X    0.000121   0.000699   0.016099  -0.017086   0.005968
   12  C  1  Y    0.000003  -0.000112   0.001445   0.000493   0.053156
   13  C  1  Z    0.000033   0.000204   0.003718  -0.018623   0.066351
   14  C  1  S    0.000710  -0.000415   0.005407   0.022009  -0.023866
   15  C  1  X    0.000268   0.000352   0.006975  -0.006221   0.010872
   16  C  1  Y   -0.000012  -0.000033  -0.000426   0.000592   0.019080
   17  C  1  Z    0.000066   0.000151   0.002641  -0.007653   0.033683
   18  C  1 XX    0.000157   0.000035   0.027927   0.016150   0.000692
   19  C  1 YY   -0.000144  -0.001759  -0.011489  -0.000044  -0.002423
   20  C  1 ZZ   -0.000135  -0.001684  -0.009766   0.001399   0.004050
   21  C  1 XY    0.000004   0.000062  -0.000107  -0.002463   0.016004
   22  C  1 XZ    0.000059   0.000420   0.009269   0.001726   0.018016
   23  C  1 YZ   -0.000014  -0.000021   0.000038   0.002710   0.002986
   24  C  1 XX    0.000298  -0.001659  -0.000317   0.041937   0.001488
   25  C  1 YY   -0.000098  -0.001862  -0.021920   0.030091  -0.008025
   26  C  1 ZZ   -0.000115  -0.001985  -0.022323   0.036056  -0.001391
   27  C  1 XY   -0.000001  -0.000065  -0.000007  -0.000714   0.008444
   28  C  1 XZ    0.000068  -0.000107   0.003040   0.009371   0.012409
   29  C  1 YZ   -0.000016   0.000003  -0.001553   0.008190   0.003599
   30  O  2  S    0.551310  -0.000655  -0.106894   0.056373   0.019652
   31  O  2  S    0.471172  -0.000771  -0.168957   0.091675   0.032146
   32  O  2  X   -0.001723  -0.000830  -0.091985  -0.161849  -0.109070
   33  O  2  Y    0.000059   0.000041   0.001581  -0.019635   0.130738
   34  O  2  Z   -0.000584  -0.000150  -0.016451  -0.070968   0.129412
   35  O  2  S    0.006191   0.000900   0.478526  -0.294963  -0.110862
   36  O  2  X    0.000734  -0.000543  -0.128333  -0.225693  -0.154815
   37  O  2  Y   -0.000017   0.000036   0.003239  -0.031067   0.204396
   38  O  2  Z    0.000284  -0.000111  -0.022855  -0.106463   0.205341
   39  O  2  S    0.002769  -0.001236   0.213400  -0.351154  -0.124317
   40  O  2  X    0.000370   0.001069  -0.024143  -0.119103  -0.098228
   41  O  2  Y    0.000023  -0.000011   0.003338  -0.026859   0.150739
   42  O  2  Z    0.000037   0.000339  -0.000735  -0.076313   0.155170
   43  O  2  S   -0.001406  -0.001784  -0.034254  -0.056863  -0.042884
   44  O  2  X    0.000073   0.000202   0.006866  -0.014645  -0.003984
   45  O  2  Y   -0.000003   0.000037  -0.000623  -0.003684  -0.008385
   46  O  2  Z    0.000024  -0.000068  -0.000365   0.002481  -0.014738
   47  O  2 XX   -0.000090   0.000466   0.020713   0.002884   0.005435
   48  O  2 YY   -0.000626  -0.000141   0.002234  -0.008028  -0.003020
   49  O  2 ZZ   -0.000586  -0.000117   0.003064  -0.006501  -0.006151
   50  O  2 XY   -0.000037  -0.000013  -0.000130   0.001065  -0.007488
   51  O  2 XZ    0.000104   0.000150   0.004409   0.005137  -0.006566
   52  O  2 YZ    0.000101  -0.000015   0.000148   0.000163  -0.001636
   53  O  2 XX   -0.001797  -0.000342   0.030179  -0.018620  -0.002094
   54  O  2 YY   -0.001376  -0.000107   0.010911  -0.022085  -0.009203
   55  O  2 ZZ   -0.001371  -0.000111   0.011782  -0.019818  -0.019737
   56  O  2 XY   -0.000034   0.000040  -0.001271   0.003245  -0.020002
   57  O  2 XZ   -0.000124  -0.000079   0.003510   0.008619  -0.019345
   58  O  2 YZ    0.000081  -0.000043  -0.000550  -0.001943  -0.001228
   59  H  3  S   -0.000005   0.000133   0.004070   0.062687  -0.025573
   60  H  3  S    0.000011   0.000333   0.006095   0.100605  -0.048678
   61  H  3  S   -0.000021  -0.000118  -0.002922   0.022288   0.005730
   62  H  3  S    0.000129   0.000394   0.006634  -0.009359   0.020454
   63  H  3  X    0.000035   0.000104   0.002827   0.010932  -0.005602
   64  H  3  Y    0.000001   0.000008   0.000014  -0.001281   0.004184
   65  H  3  Z   -0.000003   0.000122   0.001234   0.008641  -0.002328
   66  H  4  S   -0.000015   0.000102   0.013566   0.015774   0.067590
   67  H  4  S   -0.000039   0.000011   0.012797   0.020932   0.096018
   68  H  4  S    0.000060  -0.000053  -0.001157   0.012456   0.039884
   69  H  4  S   -0.000158   0.000120  -0.000199   0.000433  -0.008256
   70  H  4  X   -0.000017  -0.000002   0.001139  -0.003574   0.001861
   71  H  4  Y    0.000017  -0.000001  -0.003007  -0.002507  -0.008903
   72  H  4  Z    0.000013   0.000028  -0.002813  -0.003050  -0.008343
   73  H  5  S    0.000001   0.000101   0.008967   0.052924  -0.051762
   74  H  5  S   -0.000042   0.000222   0.009342   0.076036  -0.080588
   75  H  5  S    0.000063  -0.000177  -0.000537   0.029838  -0.019168
   76  H  5  S   -0.000198   0.000064  -0.002327   0.005941   0.002875
   77  H  5  X   -0.000028  -0.000033  -0.000450  -0.003563   0.001748
   78  H  5  Y   -0.000017   0.000097   0.001981   0.007794  -0.006481
   79  H  5  Z   -0.000025   0.000111   0.001849   0.005833  -0.004630

                      6          7          8          9         10
                   -0.4824    -0.4480    -0.1240    -0.0188     0.1781
                     A          A          A          A          A   
    1  C  1  S    0.019299  -0.015163  -0.015279   0.015345  -0.018399
    2  C  1  S    0.031243  -0.024740  -0.025850   0.025506  -0.026288
    3  C  1  X    0.162819  -0.094935  -0.052571   0.014968  -0.045462
    4  C  1  Y   -0.070655  -0.104214   0.029820  -0.040318  -0.001625
    5  C  1  Z    0.057271   0.088595   0.034245   0.008574  -0.002704
    6  C  1  S   -0.133944   0.108444   0.095749  -0.116987   0.417210
    7  C  1  X    0.225673  -0.126376  -0.066162   0.044020  -0.040160
    8  C  1  Y   -0.101121  -0.150383   0.066736  -0.070195   0.004034
    9  C  1  Z    0.084298   0.128280   0.081165   0.021701   0.008666
   10  C  1  S   -0.014191   0.021409   0.136712   0.080457  -0.468981
   11  C  1  X    0.100084  -0.061449  -0.050306   0.094634   0.275937
   12  C  1  Y   -0.050231  -0.071377   0.109970  -0.125913  -0.059330
   13  C  1  Z    0.040493   0.068478   0.141213   0.037305   0.061852
   14  C  1  S    0.005493  -0.011968   0.124928  -0.301688   3.659755
   15  C  1  X    0.008336   0.005870  -0.032250  -0.001759  -0.672760
   16  C  1  Y   -0.009699   0.002855   0.038785  -0.078977   0.401237
   17  C  1  Z    0.001962   0.032111   0.034547  -0.009889  -0.280840
   18  C  1 XX    0.015550  -0.014640   0.000134  -0.015155   0.002155
   19  C  1 YY   -0.010236   0.006708   0.006103   0.009939   0.010100
   20  C  1 ZZ   -0.012973   0.013056  -0.001682   0.002843   0.008068
   21  C  1 XY   -0.013240  -0.020136  -0.015517   0.006025   0.002592
   22  C  1 XZ    0.004331   0.018730  -0.021244  -0.010761  -0.003113
   23  C  1 YZ   -0.006251  -0.002461  -0.000858   0.013522   0.000050
   24  C  1 XX   -0.031302   0.017340   0.011694  -0.061774   0.249629
   25  C  1 YY   -0.045673   0.027764   0.020668   0.010833   0.190475
   26  C  1 ZZ   -0.056364   0.045082   0.006076  -0.011479   0.199686
   27  C  1 XY   -0.009767  -0.016657  -0.025137   0.014761   0.005520
   28  C  1 XZ   -0.008820   0.029030  -0.042035  -0.029943   0.028345
   29  C  1 YZ   -0.012048   0.003841  -0.002007   0.051516   0.017905
   30  O  2  S    0.011124  -0.000838   0.008461   0.014442   0.001466
   31  O  2  S    0.018426  -0.001541   0.014055   0.024098   0.002648
   32  O  2  X   -0.160290   0.027489   0.050314   0.018154   0.019497
   33  O  2  Y   -0.097892  -0.142204  -0.124120   0.055685   0.018235
   34  O  2  Z   -0.022277   0.166662  -0.138968  -0.011726   0.000093
   35  O  2  S   -0.072230   0.010821  -0.039218  -0.068765   0.002772
   36  O  2  X   -0.224358   0.033572   0.078735   0.030286   0.034519
   37  O  2  Y   -0.154349  -0.227843  -0.197376   0.089430   0.028356
   38  O  2  Z   -0.026264   0.261589  -0.220024  -0.017608   0.005448
   39  O  2  S   -0.110311   0.006811  -0.087954  -0.135400  -0.315163
   40  O  2  X   -0.141155   0.026676   0.082992   0.029620   0.135216
   41  O  2  Y   -0.120830  -0.182247  -0.213817   0.098806   0.030072
   42  O  2  Z   -0.007393   0.201074  -0.236772  -0.016886  -0.022572
   43  O  2  S   -0.099539   0.021517  -0.061139  -0.211350  -0.521452
   44  O  2  X    0.000383  -0.004756   0.031315   0.032525   0.262450
   45  O  2  Y    0.001642  -0.006850  -0.099889   0.109573   0.029491
   46  O  2  Z   -0.003857   0.002075  -0.117416  -0.014177   0.181979
   47  O  2 XX    0.009854  -0.000382  -0.003192  -0.002772  -0.000768
   48  O  2 YY   -0.005457   0.001864   0.000334   0.000305   0.000541
   49  O  2 ZZ   -0.005393  -0.001928   0.001003  -0.000024   0.000298
   50  O  2 XY    0.005823   0.008761   0.001274   0.000019  -0.000300
   51  O  2 XZ    0.002623  -0.010267   0.000619  -0.000124  -0.000813
   52  O  2 YZ    0.000728   0.002282   0.001015   0.001911   0.000097
   53  O  2 XX   -0.003427   0.009205  -0.004106  -0.004543   0.001013
   54  O  2 YY   -0.017818   0.004082   0.003921   0.006435   0.007722
   55  O  2 ZZ   -0.016305  -0.002863   0.006953   0.005279   0.007629
   56  O  2 XY    0.015633   0.027551   0.010059  -0.002419  -0.001460
   57  O  2 XZ   -0.003589  -0.025184   0.007834  -0.002329   0.002154
   58  O  2 YZ    0.002787   0.004993   0.000837   0.003748  -0.002013
   59  H  3  S   -0.088277   0.025866  -0.058158  -0.096037  -0.018396
   60  H  3  S   -0.145234   0.027824  -0.095596  -0.199088  -0.111597
   61  H  3  S   -0.053835   0.033911  -0.120225  -0.319545   0.195174
   62  H  3  S   -0.001980   0.015679  -0.061085  -0.446819  -3.088282
   63  H  3  X   -0.010537  -0.001509  -0.004685   0.001277   0.001203
   64  H  3  Y   -0.001554  -0.003814   0.007884  -0.013513  -0.000626
   65  H  3  Z   -0.011536   0.002385   0.006238  -0.008844   0.002303
   66  H  4  S   -0.049152   0.017996   0.118004   0.077342  -0.001274
   67  H  4  S   -0.075614   0.025907   0.231279   0.145239  -0.070488
   68  H  4  S   -0.038937   0.016037   0.258146   0.270115   0.196710
   69  H  4  S   -0.004100  -0.014983   0.110272   0.382752  -1.670763
   70  H  4  X    0.001543  -0.003481  -0.009323   0.003167  -0.002817
   71  H  4  Y    0.003492  -0.004929  -0.008422   0.001693  -0.001289
   72  H  4  Z    0.006809   0.001957  -0.009023   0.004042  -0.002860
   73  H  5  S   -0.032681   0.026031  -0.082074   0.131632   0.011087
   74  H  5  S   -0.045511   0.037975  -0.159407   0.268600  -0.015057
   75  H  5  S   -0.019231   0.029110  -0.165510   0.447049   0.096041
   76  H  5  S   -0.006836   0.012508  -0.081479   0.629049   0.428689
   77  H  5  X    0.003378  -0.002599   0.006143  -0.001038   0.000064
   78  H  5  Y   -0.005291   0.000610  -0.010387   0.003365  -0.001736
   79  H  5  Z   -0.001419   0.004805  -0.004693   0.004636   0.000217

                     11         12         13         14         15
                    0.1969     0.2403     0.2458     0.2603     0.3160
                     A          A          A          A          A   
    1  C  1  S    0.001283  -0.000951  -0.006565   0.010003   0.006131
    2  C  1  S    0.002142   0.002373  -0.013376   0.019219   0.016003
    3  C  1  X    0.010830  -0.012322  -0.004222   0.007938   0.005226
    4  C  1  Y   -0.020241  -0.016442   0.025640   0.008152  -0.009781
    5  C  1  Z   -0.026885   0.002773  -0.005447   0.003434   0.045416
    6  C  1  S   -0.045222   0.430538  -0.111685   0.407895   0.274679
    7  C  1  X    0.010875  -0.031726   0.009255  -0.035547   0.051860
    8  C  1  Y   -0.057155  -0.057214   0.033432   0.031731  -0.006808
    9  C  1  Z   -0.063540   0.014621  -0.000669  -0.003553   0.075795
   10  C  1  S    0.178780  -2.133537   1.159909  -2.987269   0.254711
   11  C  1  X    0.069924  -0.352081   0.391523  -0.604305   0.774821
   12  C  1  Y    0.110006   0.074735   0.085005  -0.072328  -0.098878
   13  C  1  Z    0.078592  -0.091269   0.066202  -0.142876   0.232156
   14  C  1  S    0.362344  -1.716767  -1.846891  -4.234184   7.739933
   15  C  1  X   -0.589777  -0.906602  -0.809947  -2.628462  -1.569065
   16  C  1  Y   -2.311786  -1.113207   0.325921   0.783427  -0.623513
   17  C  1  Z   -3.028635   0.318817   0.774341  -1.589593  -2.532981
   18  C  1 XX   -0.001264   0.005126   0.003725  -0.000101   0.006538
   19  C  1 YY   -0.000449   0.006295  -0.006131   0.003984   0.008705
   20  C  1 ZZ    0.000250   0.003383  -0.002434   0.003173   0.005879
   21  C  1 XY    0.001623   0.006086   0.002015  -0.004698   0.003777
   22  C  1 XZ    0.003765  -0.006262   0.002812   0.001515  -0.000723
   23  C  1 YZ   -0.000404   0.003362  -0.006309   0.002752  -0.003507
   24  C  1 XX   -0.013875   0.216346  -0.015583   0.181685   0.304428
   25  C  1 YY   -0.030637   0.281889  -0.148155   0.293345   0.141911
   26  C  1 ZZ   -0.013723   0.260232  -0.149342   0.299915   0.110419
   27  C  1 XY    0.017145   0.028695   0.002959  -0.020405  -0.009417
   28  C  1 XZ    0.030366  -0.041551   0.017143  -0.010300  -0.006184
   29  C  1 YZ    0.002529   0.015357  -0.037167  -0.001420  -0.034899
   30  O  2  S   -0.000991  -0.005326  -0.004964  -0.009747  -0.000062
   31  O  2  S   -0.000971  -0.005728  -0.006341  -0.010350  -0.001134
   32  O  2  X   -0.009633   0.022367  -0.012236   0.012852  -0.007396
   33  O  2  Y    0.011894   0.042901   0.001661  -0.027006   0.022343
   34  O  2  Z    0.022134  -0.024384  -0.006863   0.014005  -0.001334
   35  O  2  S    0.022344   0.100870   0.095797   0.200308  -0.013500
   36  O  2  X   -0.015640   0.031396  -0.014699   0.003662   0.002075
   37  O  2  Y    0.022478   0.079098   0.009271  -0.053020   0.035205
   38  O  2  Z    0.045057  -0.053267  -0.016878   0.029444   0.007116
   39  O  2  S   -0.123619  -0.127339  -0.582401  -0.260492  -0.459597
   40  O  2  X   -0.010659  -0.064669   0.097225  -0.169286   0.198587
   41  O  2  Y   -0.019325   0.012040  -0.030187   0.012824   0.068539
   42  O  2  Z   -0.033817   0.015415   0.058178  -0.073418   0.042302
   43  O  2  S    0.205011   2.591001   0.191925   5.011781  -2.283579
   44  O  2  X    0.058771  -0.418960   0.100850  -0.862157   0.810262
   45  O  2  Y    0.156357   0.282662   0.081782  -0.280107   0.069185
   46  O  2  Z    0.391832  -0.416862  -0.197707   0.161468   0.449529
   47  O  2 XX    0.000878   0.001187   0.003654   0.004376   0.000640
   48  O  2 YY    0.000484   0.003594   0.000898   0.006056  -0.000964
   49  O  2 ZZ    0.000540   0.003735   0.001242   0.005623  -0.002230
   50  O  2 XY    0.000294  -0.000866  -0.001333   0.000555   0.000573
   51  O  2 XZ    0.000255   0.000829   0.001052  -0.001305  -0.001028
   52  O  2 YZ   -0.000269   0.000162  -0.001778   0.000861  -0.001435
   53  O  2 XX    0.011969   0.055663   0.036040   0.112680  -0.018589
   54  O  2 YY    0.010394   0.045603   0.042904   0.091851  -0.007428
   55  O  2 ZZ    0.011961   0.045515   0.043458   0.091989  -0.011171
   56  O  2 XY    0.007063   0.002952  -0.000869  -0.003652  -0.002459
   57  O  2 XZ    0.009337  -0.001080  -0.002296   0.006894  -0.016239
   58  O  2 YZ    0.003025   0.000612  -0.000083   0.002486  -0.002008
   59  H  3  S    0.017882  -0.030893   0.045509   0.010695  -0.044195
   60  H  3  S    0.047555   0.008646  -0.026119   0.031568   0.186456
   61  H  3  S   -0.087451  -0.403518   0.974314  -0.117375  -1.279389
   62  H  3  S   -1.694037   1.569947  -2.884127  -3.460348  -3.200430
   63  H  3  X    0.004823  -0.005242   0.002420  -0.003133  -0.006298
   64  H  3  Y   -0.002835  -0.005546   0.000604  -0.000976  -0.000027
   65  H  3  Z   -0.000519   0.003874   0.006121  -0.004443  -0.003998
   66  H  4  S   -0.020403   0.000963  -0.057625   0.021177  -0.043355
   67  H  4  S   -0.056801  -0.042306   0.015208   0.069695   0.000351
   68  H  4  S   -0.055208   0.173929  -0.818466   0.067994  -0.421520
   69  H  4  S    4.652525   0.380905   1.112189   1.891670   0.173368
   70  H  4  X    0.001388  -0.001294  -0.004162  -0.001194  -0.005109
   71  H  4  Y    0.009340  -0.002542  -0.006715   0.002294  -0.003837
   72  H  4  Z    0.008497   0.007957  -0.003047  -0.005578  -0.003879
   73  H  5  S    0.008770   0.022701  -0.068010   0.004059  -0.018871
   74  H  5  S    0.079386   0.003354   0.012812   0.054616   0.143540
   75  H  5  S   -0.250953   0.393169  -0.897302  -0.232139  -0.785839
   76  H  5  S   -3.347457  -1.640254   3.975700   3.281976  -1.526451
   77  H  5  X    0.000762  -0.004266  -0.001474   0.000132  -0.007035
   78  H  5  Y    0.010546  -0.002506  -0.003810  -0.003504  -0.000890
   79  H  5  Z    0.008256   0.005003   0.002725  -0.009047   0.000444

                     16         17         18         19         20
                    0.3185     0.3592     0.4068     0.4236     0.4766
                     A          A          A          A          A   
    1  C  1  S    0.046798   0.004373   0.005568  -0.008944   0.011902
    2  C  1  S    0.087153   0.004622   0.005159  -0.020757   0.021598
    3  C  1  X    0.106218  -0.003171   0.023770   0.010398  -0.009997
    4  C  1  Y    0.031662   0.057916  -0.104648   0.099344  -0.004974
    5  C  1  Z   -0.033973   0.053023   0.081617  -0.022151   0.130823
    6  C  1  S    0.538848  -0.377139  -1.199001  -1.456543   0.487958
    7  C  1  X    0.237467  -0.035464  -0.075598  -0.080150   0.059994
    8  C  1  Y    0.053711   0.085451  -0.096350   0.088816  -0.072647
    9  C  1  Z   -0.022920   0.093037   0.067599  -0.066986   0.179189
   10  C  1  S   -1.846564   0.967707   4.939371   6.886566  -2.192046
   11  C  1  X    1.176583  -0.144911   0.726642   0.882724  -0.084431
   12  C  1  Y    0.112892   0.259989  -0.655547   0.643253   0.148794
   13  C  1  Z    0.027470   0.143467   0.649261   0.047818   1.014547
   14  C  1  S    3.905495  -0.353293   0.194840   1.106774  -1.377782
   15  C  1  X   -0.101298   0.000877  -0.441371  -0.854555   1.273728
   16  C  1  Y    0.525626  -5.236735   0.264872   0.885561   2.500168
   17  C  1  Z    0.871858  -5.209656   0.257288   0.316655   2.661141
   18  C  1 XX    0.011864  -0.004852  -0.012813  -0.024057   0.016545
   19  C  1 YY    0.004475  -0.004929  -0.013291  -0.009118  -0.001547
   20  C  1 ZZ    0.010219  -0.005225  -0.012738  -0.008540  -0.001280
   21  C  1 XY   -0.008209  -0.000345   0.002629  -0.002699   0.007893
   22  C  1 XZ    0.006622  -0.000750  -0.003347   0.001116  -0.002181
   23  C  1 YZ    0.002190   0.000781   0.002263   0.006131   0.001122
   24  C  1 XX    0.560770  -0.226282  -0.566207  -0.755330   0.315552
   25  C  1 YY    0.382994  -0.186865  -0.634175  -0.808136   0.256158
   26  C  1 ZZ    0.409726  -0.177006  -0.639783  -0.842458   0.282649
   27  C  1 XY   -0.007104   0.018315   0.013995  -0.026314  -0.013485
   28  C  1 XZ    0.055620   0.013215   0.011307  -0.031346   0.023260
   29  C  1 YZ    0.032045   0.011739   0.024805   0.000980   0.008347
   30  O  2  S   -0.002240  -0.000283  -0.000317   0.005130  -0.010576
   31  O  2  S   -0.003773  -0.000496   0.002871   0.012758  -0.022201
   32  O  2  X   -0.032921   0.004870  -0.023468  -0.024619   0.019722
   33  O  2  Y   -0.055026  -0.026151   0.026025  -0.010289   0.092639
   34  O  2  Z    0.006822  -0.027465  -0.054087   0.044834  -0.070061
   35  O  2  S    0.028280  -0.012648   0.115196   0.114000  -0.082535
   36  O  2  X   -0.031947   0.006166  -0.031686  -0.028941   0.032047
   37  O  2  Y   -0.086801  -0.033810   0.054218  -0.044677   0.091591
   38  O  2  Z    0.013072  -0.037502  -0.089774   0.057159  -0.105248
   39  O  2  S   -0.758732   0.184577  -0.646688  -0.854891   0.598243
   40  O  2  X    0.292184  -0.075800  -0.173492  -0.194154   0.259451
   41  O  2  Y   -0.130769  -0.170417   0.020502   0.093150   0.502594
   42  O  2  Z    0.097068  -0.188750  -0.152547   0.215154  -0.234907
   43  O  2  S   -1.805214  -0.164365  -2.946669  -3.748958  -0.263516
   44  O  2  X    0.396279   0.254552   2.473441   2.985156  -0.872607
   45  O  2  Y   -0.150207   0.278214   0.664080  -1.124499  -1.426622
   46  O  2  Z    0.046246   0.394784  -0.056748   0.276960  -0.861206
   47  O  2 XX    0.001504   0.000384   0.006498   0.004783  -0.000405
   48  O  2 YY   -0.001212   0.000295   0.001586   0.002325  -0.003296
   49  O  2 ZZ    0.000155  -0.000822   0.000518   0.002410  -0.004985
   50  O  2 XY   -0.001063  -0.003904   0.005168  -0.005325  -0.001350
   51  O  2 XZ    0.002859  -0.003533  -0.002454   0.002413  -0.006261
   52  O  2 YZ    0.001219  -0.000364   0.002078  -0.000041  -0.000456
   53  O  2 XX   -0.017057   0.003036   0.111495   0.125194  -0.110531
   54  O  2 YY    0.012385  -0.009876   0.054306   0.071076  -0.080252
   55  O  2 ZZ    0.012250  -0.008250   0.054593   0.070584  -0.078532
   56  O  2 XY   -0.000163   0.001384   0.012670  -0.019253  -0.020341
   57  O  2 XZ   -0.003126   0.006294   0.006529  -0.003013  -0.006984
   58  O  2 YZ    0.001612   0.003899   0.003620   0.000259  -0.004975
   59  H  3  S    0.084115   0.014078   0.043809  -0.031932   0.036435
   60  H  3  S    0.089239   0.036001   0.024086   0.045271  -0.127134
   61  H  3  S    1.334557  -0.184467   0.937287  -0.833290   1.876197
   62  H  3  S   -1.301982   0.009650  -0.932541  -0.262767   0.674993
   63  H  3  X   -0.010716  -0.004016  -0.008259   0.012165  -0.014160
   64  H  3  Y    0.003832  -0.000544  -0.006895   0.001868  -0.006051
   65  H  3  Z   -0.021692  -0.003532   0.006835   0.013889  -0.005598
   66  H  4  S    0.076206   0.057688   0.023317  -0.006165  -0.029200
   67  H  4  S    0.074036  -0.167903  -0.069076  -0.074153  -0.039080
   68  H  4  S    0.829465   1.838642   0.824382   0.274447  -0.727034
   69  H  4  S   -2.218296   5.341747  -0.516352  -0.537593  -1.648664
   70  H  4  X    0.000854  -0.001099  -0.001857  -0.006117  -0.008000
   71  H  4  Y    0.010282  -0.007473  -0.000995  -0.002876   0.002761
   72  H  4  Z    0.008995  -0.006457   0.001176  -0.006671   0.011141
   73  H  5  S    0.018289  -0.035475  -0.004453   0.051146   0.026725
   74  H  5  S   -0.035965   0.155352  -0.118174   0.013888  -0.019570
   75  H  5  S    0.337910  -1.547904   0.316452   1.127025   1.051805
   76  H  5  S   -0.008986  -5.237917   0.823897   0.101883   1.724698
   77  H  5  X   -0.004292   0.006956  -0.006480  -0.006590   0.000716
   78  H  5  Y   -0.007338  -0.008253   0.001855   0.011025  -0.003387
   79  H  5  Z   -0.013381  -0.005061   0.001021   0.006681   0.000441

                     21         22         23         24         25
                    0.4981     0.5151     0.5553     0.6636     0.7186
                     A          A          A          A          A   
    1  C  1  S    0.005542  -0.001923   0.001337  -0.007923   0.046647
    2  C  1  S    0.012434  -0.003962   0.011666  -0.020188   0.065592
    3  C  1  X   -0.008872   0.012365   0.013489  -0.029514   0.088478
    4  C  1  Y    0.029158  -0.116699  -0.012243  -0.039186   0.000077
    5  C  1  Z    0.039331  -0.094253   0.021471  -0.004061   0.016866
    6  C  1  S    0.680926  -0.148354   1.351305  -0.541940  -2.215450
    7  C  1  X    0.068730   0.013011  -0.212861   0.280396  -0.101135
    8  C  1  Y    0.058907  -0.183109  -0.045989  -0.111011   0.012446
    9  C  1  Z   -0.048625  -0.139817  -0.018282   0.047701  -0.039924
   10  C  1  S   -2.811340   0.824502  -9.870156   8.745611   2.819247
   11  C  1  X   -0.070155   0.062618  -2.095291   4.230322  -1.745474
   12  C  1  Y    0.227611  -0.983093  -0.034324  -0.000051  -0.054420
   13  C  1  Z    0.524908  -0.893923  -0.287382   1.012036  -0.350560
   14  C  1  S   -2.620369   0.753763  -6.709390   1.299080  -1.083068
   15  C  1  X    1.243286   0.015940  -1.858738  -0.511048  -0.422208
   16  C  1  Y    0.618188  -1.065874   0.526050   0.477873   0.239105
   17  C  1  Z    3.373026  -1.390276  -0.139365   0.197409  -0.477876
   18  C  1 XX    0.007369   0.000451  -0.005279  -0.035902  -0.028646
   19  C  1 YY    0.003724  -0.002609   0.017105   0.017937  -0.030322
   20  C  1 ZZ    0.014117  -0.000512   0.016028   0.016479  -0.022977
   21  C  1 XY   -0.005031   0.007228   0.002177   0.000375   0.001016
   22  C  1 XZ    0.013383   0.006357  -0.005261  -0.010934   0.007432
   23  C  1 YZ    0.002433   0.005004  -0.003174   0.004655   0.018462
   24  C  1 XX    0.368336  -0.077325   0.557447  -0.063338  -1.368546
   25  C  1 YY    0.365643  -0.095739   0.959152  -0.596829  -1.056457
   26  C  1 ZZ    0.334405  -0.112533   0.959168  -0.569210  -1.085944
   27  C  1 XY   -0.003257  -0.029924  -0.005635  -0.001128  -0.026913
   28  C  1 XZ   -0.086531  -0.047373  -0.088245   0.091575  -0.123247
   29  C  1 YZ   -0.009591  -0.025072  -0.054857   0.029537  -0.006056
   30  O  2  S   -0.001326  -0.002164   0.030672   0.015526  -0.002222
   31  O  2  S   -0.003100  -0.005859   0.065687   0.033954  -0.005268
   32  O  2  X   -0.008667  -0.008238  -0.045459   0.052800  -0.007028
   33  O  2  Y   -0.047204   0.088232   0.027567   0.010456  -0.010564
   34  O  2  Z    0.086540   0.046852  -0.012064   0.007134  -0.037926
   35  O  2  S   -0.012684  -0.055133   0.177483   0.366031  -0.091076
   36  O  2  X   -0.002994  -0.009807  -0.092917   0.113717  -0.039691
   37  O  2  Y   -0.052280   0.092865   0.029336   0.013125  -0.018414
   38  O  2  Z    0.067730   0.046759  -0.025795   0.020174  -0.062160
   39  O  2  S    0.049357   0.408220  -0.685277  -4.944901   2.095841
   40  O  2  X    0.040292  -0.067406  -1.028584   1.423280  -0.918660
   41  O  2  Y   -0.242325   0.537180   0.165857   0.055172   0.056021
   42  O  2  Z    0.660615   0.346413  -0.221205   0.280596  -0.206783
   43  O  2  S    1.184671  -1.274553  12.445609  -4.856325   2.057007
   44  O  2  X   -0.866810   0.460739  -2.519507   1.588104  -0.458518
   45  O  2  Y    0.362752  -1.037178  -0.360985  -0.134746   0.069240
   46  O  2  Z   -2.772615  -0.545128  -0.599260   0.257291   0.330970
   47  O  2 XX   -0.000198  -0.003366   0.004853   0.008241  -0.003644
   48  O  2 YY   -0.000242  -0.001445   0.011303   0.003957   0.000231
   49  O  2 ZZ   -0.001437  -0.000235   0.010960   0.004603  -0.000277
   50  O  2 XY   -0.000749   0.004601   0.000634   0.001012  -0.000757
   51  O  2 XZ   -0.003389   0.004488  -0.002789   0.000766  -0.000514
   52  O  2 YZ   -0.000062   0.001390  -0.001340  -0.000304   0.000617
   53  O  2 XX   -0.023171  -0.040383   0.312830   0.141748   0.002485
   54  O  2 YY   -0.010014  -0.038449   0.201460   0.276788  -0.061428
   55  O  2 ZZ   -0.019894  -0.044018   0.205526   0.273235  -0.065915
   56  O  2 XY    0.007681  -0.013950  -0.005704   0.004379  -0.014258
   57  O  2 XZ   -0.051873  -0.012942   0.025654  -0.032378  -0.001935
   58  O  2 YZ    0.004476   0.003162  -0.003426   0.007832   0.025994
   59  H  3  S    0.015684   0.010543   0.015813  -0.053480   0.091368
   60  H  3  S    0.154455   0.167529  -0.069039  -0.517258   0.992538
   61  H  3  S    1.027157  -0.405238   0.679317   2.594406  -2.311137
   62  H  3  S    2.456397   0.005496  -0.932891  -2.374886   0.124194
   63  H  3  X    0.025760   0.011723  -0.008540   0.017723   0.016198
   64  H  3  Y    0.002739  -0.008635   0.004401  -0.004686  -0.027422
   65  H  3  Z    0.009256   0.010222   0.002180  -0.032017   0.013440
   66  H  4  S   -0.003550   0.032009  -0.022943   0.041981   0.077925
   67  H  4  S    0.026901  -0.107171   0.035978   0.401375   1.140433
   68  H  4  S   -0.280276   2.832600  -0.813335  -1.310587  -2.467842
   69  H  4  S   -1.264006   0.453710   1.232175   0.393436   0.988702
   70  H  4  X    0.002006   0.005895   0.010472  -0.001494   0.017269
   71  H  4  Y    0.000566  -0.001443  -0.002003  -0.016712  -0.020807
   72  H  4  Z    0.003273   0.002777   0.002051  -0.015219  -0.010539
   73  H  5  S    0.021978  -0.040126  -0.028958   0.027965   0.017175
   74  H  5  S    0.120164   0.161154   0.012037   0.488965   0.469127
   75  H  5  S    0.433188  -2.639653  -0.654563  -1.791953  -0.805410
   76  H  5  S    0.594281  -0.629766   2.039709   1.952108   0.623851
   77  H  5  X   -0.003880  -0.011512   0.016154  -0.011732  -0.014937
   78  H  5  Y    0.011831   0.004893  -0.005857   0.021312   0.028377
   79  H  5  Z   -0.002607   0.003361   0.000177   0.015349   0.014938

                     26         27         28         29         30
                    0.7808     0.8366     0.9108     0.9225     0.9680
                     A          A          A          A          A   
    1  C  1  S    0.040460   0.027383  -0.005783   0.007576   0.002305
    2  C  1  S    0.044219   0.023075  -0.008539   0.011543   0.003575
    3  C  1  X    0.084900   0.023903   0.016162  -0.014204   0.020913
    4  C  1  Y    0.029679  -0.018321   0.201847   0.076269  -0.117707
    5  C  1  Z   -0.030207   0.004016  -0.097919   0.216030  -0.039227
    6  C  1  S   -3.905522  -3.982950   0.583590  -0.270276   0.028620
    7  C  1  X   -0.193407   0.313250   0.114446   0.061485  -0.002378
    8  C  1  Y    0.079878  -0.036580   0.753249   0.163362  -0.514337
    9  C  1  Z   -0.108668   0.048232  -0.472708   0.713423  -0.231765
   10  C  1  S    6.192196  19.387801  -0.751661   3.033598  -1.653021
   11  C  1  X   -2.786550   4.249727   0.636323   1.092624  -0.997360
   12  C  1  Y   -0.017906  -0.092628  -1.273808  -0.106028   1.744826
   13  C  1  Z   -0.847066   0.898561   1.355625  -0.798707   0.913013
   14  C  1  S   -4.421598   1.609885   0.286257   1.652687  -0.544370
   15  C  1  X    0.799847   0.288620  -0.138082  -0.620052  -0.120986
   16  C  1  Y   -0.860302   0.144483   0.076990  -1.893676  -1.329285
   17  C  1  Z   -0.223959   0.205471  -0.423766  -2.439247  -1.355869
   18  C  1 XX   -0.049072  -0.049199   0.002827  -0.000369   0.004635
   19  C  1 YY   -0.045778  -0.033592   0.005724  -0.003272  -0.003007
   20  C  1 ZZ   -0.056879  -0.032073   0.008910   0.001394  -0.004146
   21  C  1 XY   -0.003446   0.000767   0.009632   0.000221  -0.008139
   22  C  1 XZ   -0.009112  -0.003699  -0.004891   0.006750  -0.000600
   23  C  1 YZ   -0.002214  -0.019518   0.003982   0.000730   0.000452
   24  C  1 XX   -2.442022  -2.096265   0.285257  -0.087068  -0.001115
   25  C  1 YY   -1.789935  -2.431444   0.053754  -0.273761  -0.523748
   26  C  1 ZZ   -1.962670  -2.200266   0.516673  -0.160465   0.589350
   27  C  1 XY    0.006294   0.030476  -0.078339  -0.032187   0.017388
   28  C  1 XZ   -0.110857   0.096876  -0.012926   0.004587  -0.185234
   29  C  1 YZ   -0.017490  -0.157492  -0.012477  -0.016831   0.055598
   30  O  2  S   -0.005115   0.009036   0.003072  -0.000220  -0.003192
   31  O  2  S   -0.010302   0.025613   0.006022   0.003049  -0.006088
   32  O  2  X   -0.008067   0.021901   0.004215   0.003196  -0.011802
   33  O  2  Y   -0.011957   0.016404  -0.037034  -0.012823   0.020018
   34  O  2  Z    0.045112   0.002489   0.013922  -0.062051  -0.000112
   35  O  2  S   -0.138378   0.584239   0.083270   0.199541  -0.070830
   36  O  2  X   -0.052973   0.052624  -0.003397   0.013654  -0.021092
   37  O  2  Y   -0.011310   0.016946  -0.064144   0.003866   0.047717
   38  O  2  Z    0.069005  -0.005137   0.041516  -0.094717   0.007390
   39  O  2  S    3.301893  -5.139460  -0.904424  -1.635731   0.895010
   40  O  2  X   -1.368279   1.250129   0.282513   0.521580  -0.295437
   41  O  2  Y   -0.110202   0.107769  -0.010047  -0.166090  -0.227954
   42  O  2  Z   -0.177556   0.242885  -0.089404  -0.138481  -0.209796
   43  O  2  S    1.371088  -9.690458  -0.159757  -1.441691   1.661622
   44  O  2  X   -0.209907   3.520793   0.086654   0.595263  -0.462086
   45  O  2  Y    0.125048  -0.077494   0.349940   0.171475   0.011915
   46  O  2  Z   -0.137608   0.593600  -0.372688   0.889046   0.149124
   47  O  2 XX   -0.006068   0.010184   0.000899   0.009809  -0.000492
   48  O  2 YY    0.002330   0.006355  -0.002745  -0.000032  -0.007224
   49  O  2 ZZ    0.000830   0.008851   0.003498  -0.000784   0.006944
   50  O  2 XY   -0.001214   0.002454  -0.006307  -0.002413   0.002962
   51  O  2 XZ   -0.000004  -0.000051   0.001988  -0.005836   0.000282
   52  O  2 YZ   -0.001310  -0.001878  -0.001441  -0.001171  -0.000672
   53  O  2 XX   -0.004514   0.224218   0.029912   0.080202  -0.026022
   54  O  2 YY   -0.102323   0.373988   0.033922   0.115001  -0.095092
   55  O  2 ZZ   -0.095466   0.371447   0.075623   0.102877  -0.008857
   56  O  2 XY    0.004423   0.003654  -0.052327  -0.004812   0.059064
   57  O  2 XZ    0.051164  -0.040463   0.021857  -0.049926   0.025739
   58  O  2 YZ   -0.005604  -0.039458  -0.014554  -0.014024   0.017093
   59  H  3  S   -0.026932   0.045183  -0.021901   0.032749  -0.005229
   60  H  3  S   -1.000503   0.572386   0.136267   0.570814   0.071798
   61  H  3  S    0.499225  -1.029492   0.831114  -1.268425  -0.482966
   62  H  3  S    1.074854   0.700297  -0.762681  -0.647494   0.097493
   63  H  3  X   -0.003949   0.019744   0.028700  -0.007803   0.035500
   64  H  3  Y    0.010206   0.030868  -0.013583  -0.006949   0.000482
   65  H  3  Z    0.035043  -0.029140  -0.003940  -0.040846  -0.010748
   66  H  4  S   -0.014751   0.007782  -0.023413  -0.068317   0.007035
   67  H  4  S   -0.313056  -0.646267  -0.307005  -0.880105  -0.481079
   68  H  4  S    0.456384   1.010211   0.578951   2.125666  -0.352554
   69  H  4  S    1.382883  -0.510625   0.024305   1.118922   1.572817
   70  H  4  X   -0.014708  -0.000223  -0.004823  -0.010392  -0.030831
   71  H  4  Y    0.008612  -0.017480  -0.032568  -0.048389  -0.011841
   72  H  4  Z   -0.020977   0.003988   0.005541  -0.034372   0.092674
   73  H  5  S    0.051679  -0.028930   0.029045   0.077842  -0.009825
   74  H  5  S    0.308741  -1.026145   0.442433   1.039593   0.637976
   75  H  5  S   -1.279956   1.648591  -0.985402  -2.461546   0.107730
   76  H  5  S    0.221874  -0.648827   0.462080  -1.156552  -1.399493
   77  H  5  X    0.034823  -0.022701  -0.009823  -0.022774   0.032493
   78  H  5  Y   -0.009688   0.013151   0.022073  -0.020134   0.084582
   79  H  5  Z    0.020507  -0.007743  -0.036207  -0.039706  -0.002647

                     31         32         33         34         35
                    1.0196     1.1938     1.2224     1.3441     1.3636
                     A          A          A          A          A   
    1  C  1  S    0.001979   0.029863   0.012842   0.000920   0.014239
    2  C  1  S    0.004610   0.053541   0.023525  -0.002664   0.016110
    3  C  1  X    0.009445  -0.168906  -0.063104   0.027049  -0.061094
    4  C  1  Y   -0.041551   0.016907   0.000432   0.005435   0.006433
    5  C  1  Z   -0.073361  -0.009950  -0.009749  -0.003141  -0.029467
    6  C  1  S    0.163928  -3.422591  -0.972763   0.377712  -0.052633
    7  C  1  X    0.094443  -0.997554  -0.350529   1.235500   0.675426
    8  C  1  Y   -0.285117   0.022511   0.097602   0.057389   0.000712
    9  C  1  Z   -0.461289  -0.151569  -0.131396   0.097155   0.353695
   10  C  1  S    1.418497   7.267923   1.884813   8.977915   7.566977
   11  C  1  X    1.649083   1.593428   0.644306   4.050284   2.660533
   12  C  1  Y    1.748558  -0.413024   1.485363   0.067881  -0.020127
   13  C  1  Z    3.148871  -0.091307   0.803156   0.639500   0.979529
   14  C  1  S    0.732146   1.737665   0.157757   3.316466   1.769430
   15  C  1  X   -0.022520  -0.312487  -0.157653   1.078306   0.280832
   16  C  1  Y   -1.294371  -0.090939  -0.367410  -0.010647   0.038490
   17  C  1  Z   -1.309014  -0.415510  -0.260214   0.715181  -0.366215
   18  C  1 XX    0.001717  -0.067550  -0.018135   0.093947   0.056356
   19  C  1 YY    0.001525  -0.015075  -0.008083  -0.011001  -0.026016
   20  C  1 ZZ    0.010907  -0.014691  -0.004418  -0.013250  -0.026412
   21  C  1 XY   -0.004971  -0.000785   0.006134   0.002149  -0.001940
   22  C  1 XZ   -0.000874  -0.010094  -0.000017   0.016216   0.025901
   23  C  1 YZ   -0.000066   0.001638   0.002383  -0.003017  -0.004564
   24  C  1 XX    0.130873  -0.718686  -0.104047   1.100301   0.665023
   25  C  1 YY    0.474320  -1.785361  -0.520749  -0.499211  -0.901371
   26  C  1 ZZ   -0.380892  -1.789943  -0.499730  -0.858351  -0.126404
   27  C  1 XY   -0.019973  -0.397942   1.349838   0.131053  -0.054751
   28  C  1 XZ    0.323849  -0.098599   0.073196  -0.431295   1.662087
   29  C  1 YZ   -0.039911   0.068826   0.100624   0.433104   0.064020
   30  O  2  S    0.002615  -0.013018  -0.010530   0.041774   0.002969
   31  O  2  S    0.005610  -0.024914  -0.016599   0.043636  -0.005739
   32  O  2  X   -0.001321  -0.015055  -0.014219  -0.120706  -0.150275
   33  O  2  Y    0.005986   0.007689  -0.028658   0.015835  -0.009519
   34  O  2  Z   -0.015202  -0.009269  -0.019903  -0.023034   0.047470
   35  O  2  S    0.089080  -0.300397   0.049603  -1.219104  -0.399849
   36  O  2  X    0.012893   0.052629   0.008287  -0.068427  -0.167287
   37  O  2  Y    0.021539   0.024199  -0.062970   0.054945  -0.040492
   38  O  2  Z   -0.010031  -0.005692  -0.049634  -0.040786   0.251570
   39  O  2  S   -1.753566   1.207991  -0.196163  -2.069782  -3.293471
   40  O  2  X    0.440157  -2.069844  -0.659382   2.914473   2.554377
   41  O  2  Y   -0.269374   0.376817  -1.535339  -0.340042   0.114622
   42  O  2  Z   -0.514072  -0.051103  -0.141869   1.589051  -1.500571
   43  O  2  S   -1.569114  -3.722188  -0.644397  -8.680371  -4.920905
   44  O  2  X    0.510547   1.901002   0.536332   1.282747   0.814270
   45  O  2  Y    0.106862  -0.010661   0.135768   0.147993  -0.027516
   46  O  2  Z   -0.134060   0.483780   0.046260  -0.218062   0.975086
   47  O  2 XX    0.000269  -0.039195  -0.010308  -0.015317   0.009862
   48  O  2 YY    0.007362   0.015348   0.007858  -0.033792  -0.013853
   49  O  2 ZZ   -0.004899   0.015919   0.007410  -0.027726  -0.022041
   50  O  2 XY    0.001510   0.006661  -0.028023  -0.006262   0.000923
   51  O  2 XZ   -0.002702  -0.006486  -0.003655   0.023109  -0.027158
   52  O  2 YZ   -0.002877   0.002674  -0.007655   0.003119   0.001329
   53  O  2 XX    0.022682  -0.011732   0.059316  -0.914939  -0.494420
   54  O  2 YY    0.084373  -0.182314   0.000924  -0.491611  -0.190926
   55  O  2 ZZ    0.036527  -0.170405   0.005218  -0.549378  -0.101792
   56  O  2 XY    0.047083  -0.034513   0.098852   0.012426   0.000498
   57  O  2 XZ    0.061305   0.006972   0.008856  -0.114771   0.000321
   58  O  2 YZ   -0.002083   0.035441  -0.025569   0.029214  -0.002175
   59  H  3  S    0.000776   0.007586  -0.005262  -0.010327   0.049445
   60  H  3  S    1.001667   0.141955   0.092806   0.487636  -1.384076
   61  H  3  S    0.090926  -0.148287   0.079321   0.181200   0.973559
   62  H  3  S   -0.124874  -0.626833  -0.156211   0.561543  -0.702166
   63  H  3  X    0.020361  -0.043167   0.021518  -0.036212  -0.093229
   64  H  3  Y    0.000398   0.043386  -0.175661  -0.029101   0.011527
   65  H  3  Z    0.039213   0.086297   0.027918   0.027871  -0.028819
   66  H  4  S   -0.002327  -0.012358   0.002086  -0.014010  -0.003193
   67  H  4  S   -1.111544  -0.136006  -0.388934  -0.474772   0.017312
   68  H  4  S    0.131439   0.480217  -0.055243   0.518884  -0.209123
   69  H  4  S    1.276319  -0.137066   0.296816  -0.874162   0.028282
   70  H  4  X   -0.008978   0.031651   0.019197  -0.005015   0.013553
   71  H  4  Y    0.081523  -0.028303   0.040871   0.012237   0.007723
   72  H  4  Z    0.012249  -0.002548   0.015474  -0.019279   0.053551
   73  H  5  S   -0.002232   0.001587  -0.008642  -0.011632   0.002816
   74  H  5  S    1.129441   0.020099   0.502601  -0.406192  -0.028644
   75  H  5  S    0.037480  -0.200755   0.099689   0.401805  -0.070019
   76  H  5  S   -1.473954  -0.122541  -0.262693  -0.642890   0.015937
   77  H  5  X   -0.011510   0.081267  -0.111343   0.040660  -0.003935
   78  H  5  Y    0.033036   0.006116   0.058160  -0.002231  -0.027165
   79  H  5  Z    0.081268   0.028554  -0.000709  -0.002681   0.010621

                     36         37         38         39         40
                    1.3920     1.4280     1.4960     1.5514     1.6858
                     A          A          A          A          A   
    1  C  1  S   -0.011931  -0.010171   0.004079  -0.002512  -0.007065
    2  C  1  S   -0.022382  -0.012563  -0.000873  -0.015403  -0.030385
    3  C  1  X    0.058365   0.027750  -0.019043  -0.026696  -0.108354
    4  C  1  Y   -0.017206   0.020838   0.033154  -0.004483  -0.011433
    5  C  1  Z    0.012766   0.025074  -0.006972   0.024251   0.006762
    6  C  1  S   -1.376506   0.015741  -0.914512  -1.356707  -1.765602
    7  C  1  X   -0.505228  -0.322436   0.144396  -0.007308  -0.817906
    8  C  1  Y    0.041758  -0.106130  -0.089578  -0.011751   0.058718
    9  C  1  Z    0.055727  -0.031758  -0.013275  -0.043983  -0.127471
   10  C  1  S   -2.084798  -7.436726   7.815525   4.417278   0.130683
   11  C  1  X   -2.724269  -3.675244   2.745192  -0.199606  -1.823332
   12  C  1  Y    0.518421  -0.199696  -0.434829  -0.121217  -0.408245
   13  C  1  Z   -0.282505  -0.979008   0.530115  -0.372974  -0.614577
   14  C  1  S    0.218674   0.441558  -0.352128  -1.097816  -0.432374
   15  C  1  X    0.297103   0.678217  -0.311447   0.620089   0.230002
   16  C  1  Y   -0.664334   0.304041   0.572824   0.094927   0.047195
   17  C  1  Z   -0.798753   0.297853   0.036799   1.070395   0.078149
   18  C  1 XX   -0.076062  -0.020315   0.004028   0.009715  -0.005917
   19  C  1 YY    0.006877   0.016937  -0.022026  -0.027967  -0.039731
   20  C  1 ZZ    0.006514   0.019568  -0.020036  -0.024919  -0.023960
   21  C  1 XY    0.004224  -0.017262  -0.022158   0.006806   0.005562
   22  C  1 XZ   -0.010667  -0.006149   0.010130  -0.004991   0.021881
   23  C  1 YZ   -0.002497  -0.001689  -0.001360   0.005715  -0.004313
   24  C  1 XX   -1.551747  -0.249821  -0.527978  -1.210034  -1.719629
   25  C  1 YY   -0.038081   0.278251  -0.587157  -0.798835  -0.899439
   26  C  1 ZZ    0.168482   0.386198  -0.724790  -0.623408  -1.154563
   27  C  1 XY    0.211182  -0.063263  -0.208643  -0.179869  -0.454286
   28  C  1 XZ    0.222410  -0.095823  -0.109065   0.518093  -0.450209
   29  C  1 YZ    0.892598  -0.647465   0.802899   0.484002  -0.129921
   30  O  2  S    0.034860   0.047606  -0.023761   0.003135   0.003005
   31  O  2  S    0.044192   0.046264  -0.021995   0.002323  -0.010601
   32  O  2  X    0.080298   0.026781  -0.017962   0.007455  -0.084183
   33  O  2  Y    0.042721  -0.142079  -0.167921   0.034188   0.058595
   34  O  2  Z    0.093083  -0.030999   0.024496  -0.200359  -0.001436
   35  O  2  S   -1.168305  -2.354891   1.475422  -0.051441  -0.688813
   36  O  2  X    0.092583   0.085210  -0.081181   0.053468  -0.265814
   37  O  2  Y    0.141436  -0.509011  -0.652344   0.139172   0.160348
   38  O  2  Z    0.287423  -0.089833   0.079810  -0.730609  -0.009389
   39  O  2  S    6.646102  10.499919  -6.616542   0.413530   5.688123
   40  O  2  X   -1.788391  -1.926588   1.177232  -0.058966  -1.484428
   41  O  2  Y   -0.723209   1.222132   1.528551  -0.139067   0.205998
   42  O  2  Z   -1.539753  -0.214179   0.262220   1.061355  -0.101733
   43  O  2  S    0.570835   0.665162  -1.727700  -1.301278   0.430341
   44  O  2  X   -0.286557  -0.781867   0.898753   0.330989  -0.263309
   45  O  2  Y    0.368518  -0.771929  -0.879398   0.103325   0.055633
   46  O  2  Z    0.711015  -0.330850   0.174897  -0.906042  -0.020926
   47  O  2 XX   -0.024629  -0.046559   0.025285  -0.000898  -0.020797
   48  O  2 YY   -0.009559  -0.028795   0.014664  -0.002972  -0.007444
   49  O  2 ZZ   -0.015265  -0.028196   0.016361  -0.002965  -0.006758
   50  O  2 XY   -0.010627   0.013708   0.013102  -0.001106   0.007066
   51  O  2 XZ   -0.020129  -0.004810   0.005338   0.003756   0.001272
   52  O  2 YZ    0.005588  -0.003138   0.011849   0.005005   0.003945
   53  O  2 XX   -0.358277  -1.015219   0.619602  -0.088828  -0.428382
   54  O  2 YY   -0.574793  -1.149021   0.746149  -0.037589  -0.274226
   55  O  2 ZZ   -0.537630  -1.127637   0.677410   0.004251  -0.475336
   56  O  2 XY    0.025085  -0.024717  -0.006738  -0.040253   0.103578
   57  O  2 XZ    0.097074  -0.002456  -0.027789  -0.068297  -0.031194
   58  O  2 YZ    0.056593  -0.020127   0.024760   0.095253  -0.316525
   59  H  3  S    0.030625  -0.020843  -0.001878  -0.005435  -0.058452
   60  H  3  S    0.029755  -0.067450   0.109763  -0.773803   0.311419
   61  H  3  S   -0.945418  -0.475354   0.354218   0.417600  -0.440978
   62  H  3  S    0.465888   0.686287  -0.409335   0.999588   0.303513
   63  H  3  X   -0.065120  -0.014943   0.078700   0.144031   0.319946
   64  H  3  Y   -0.040675  -0.026909  -0.175830   0.004671  -0.318081
   65  H  3  Z   -0.037764   0.029613  -0.050159  -0.009255  -0.127849
   66  H  4  S    0.022810   0.008479   0.015322   0.021437  -0.028868
   67  H  4  S   -1.157180   0.426952  -0.964807  -0.651182   0.454651
   68  H  4  S    0.619137   0.348729   0.511705   0.534924  -0.322508
   69  H  4  S    0.283714  -0.430911  -0.111892  -0.395513   0.078449
   70  H  4  X   -0.010035   0.120484   0.002042   0.136985  -0.319732
   71  H  4  Y    0.023219  -0.030330   0.027474  -0.105500   0.170613
   72  H  4  Z    0.007624  -0.015488  -0.070037   0.040992  -0.090245
   73  H  5  S    0.005710  -0.006891   0.009654   0.000498  -0.029463
   74  H  5  S   -0.906788   0.641865  -0.966767  -0.742364   0.063829
   75  H  5  S    0.822655  -0.134966   0.089706   0.360429  -0.198029
   76  H  5  S   -1.089206  -0.278892   0.560182   0.069504   0.085615
   77  H  5  X    0.084501  -0.043070  -0.147290  -0.130230  -0.295159
   78  H  5  Y    0.010733   0.016105   0.027170  -0.019735   0.217248
   79  H  5  Z    0.026983  -0.003987  -0.084489  -0.019573  -0.167310

                     41         42         43         44         45
                    1.7747     1.8376     1.9058     2.0296     2.0971
                     A          A          A          A          A   
    1  C  1  S   -0.061908  -0.082672  -0.054170  -0.010698  -0.003326
    2  C  1  S   -0.169375  -0.216112  -0.119794  -0.019934  -0.015720
    3  C  1  X   -0.115198  -0.007191   0.165890   0.067830   0.005244
    4  C  1  Y   -0.017146   0.022372  -0.006314   0.027286  -0.030872
    5  C  1  Z    0.000506  -0.014784   0.066561   0.010089   0.026083
    6  C  1  S   -2.832037  -3.624186  -1.201712  -0.370591  -0.959118
    7  C  1  X   -0.769281  -0.616527   0.401459   0.105380  -0.119828
    8  C  1  Y   -0.035940  -0.008389   0.084952  -0.024720   0.017485
    9  C  1  Z   -0.236499   0.009399   0.063930   0.060041  -0.023613
   10  C  1  S    7.290438  11.806367   6.925036   1.302381   2.549532
   11  C  1  X   -0.836844   0.726418   1.697342   0.276075   0.102439
   12  C  1  Y    0.240727   0.143521  -0.206620   0.174091  -0.298100
   13  C  1  Z    0.278125  -0.273103   0.421956  -0.177156  -0.068914
   14  C  1  S   -0.920147  -0.497985   0.215255   0.196015  -0.311844
   15  C  1  X    0.170275   0.171819  -0.039976  -0.072928   0.243479
   16  C  1  Y   -0.333147  -0.181813   0.062468  -0.084546   0.036576
   17  C  1  Z   -0.402561  -0.104147  -0.028752  -0.128153   0.224470
   18  C  1 XX   -0.037918  -0.083857  -0.073814  -0.019717  -0.015417
   19  C  1 YY   -0.049720  -0.046244   0.026891   0.032110  -0.021091
   20  C  1 ZZ   -0.043310  -0.041947   0.030619  -0.000587  -0.007520
   21  C  1 XY    0.004237   0.000428  -0.002395   0.000592   0.009090
   22  C  1 XZ    0.021557  -0.019484  -0.012016   0.009889   0.021673
   23  C  1 YZ    0.015975  -0.000797   0.006630   0.002157   0.004827
   24  C  1 XX   -3.188545  -3.242737  -0.249141   0.047819  -0.688437
   25  C  1 YY   -2.415994  -2.941580  -1.550870  -0.385410  -0.733354
   26  C  1 ZZ   -2.582495  -2.977875  -1.313697  -0.416045  -0.133900
   27  C  1 XY    0.207454   0.055957  -0.200383   0.013313   0.418281
   28  C  1 XZ   -0.545550   0.037570   0.456523  -0.077081   0.320582
   29  C  1 YZ   -0.328014   0.184802  -0.211260  -0.051155   0.718709
   30  O  2  S   -0.004601   0.004747   0.015388   0.006622   0.000509
   31  O  2  S   -0.006954   0.009881   0.031805   0.011641  -0.000206
   32  O  2  X   -0.043531   0.040580   0.144435   0.040776   0.004905
   33  O  2  Y   -0.011096  -0.013744   0.024727  -0.006711  -0.047565
   34  O  2  Z    0.016336   0.006084  -0.004307   0.020929  -0.046001
   35  O  2  S    0.389637   0.187342  -0.145426  -0.194670  -0.130357
   36  O  2  X   -0.318259   0.008633   0.441443   0.132824   0.038790
   37  O  2  Y    0.018148  -0.070759   0.072547  -0.012030  -0.195391
   38  O  2  Z    0.112364  -0.060416  -0.004951   0.078716  -0.184763
   39  O  2  S    1.927418   0.421660  -2.470437  -0.057734   0.542016
   40  O  2  X   -0.644330  -0.732730   0.118591  -0.177044  -0.267125
   41  O  2  Y   -0.267915   0.046155   0.085827  -0.024575   0.051289
   42  O  2  Z   -0.335832  -0.018441   0.003911   0.031253   0.061075
   43  O  2  S   -0.862121  -2.800936  -2.227668  -0.424630  -0.995716
   44  O  2  X    0.315288   1.054909   0.867636   0.200187   0.335233
   45  O  2  Y    0.120594  -0.039809  -0.016983  -0.009623   0.009203
   46  O  2  Z    0.242765   0.250200   0.165425   0.125562  -0.052336
   47  O  2 XX    0.014724   0.013650   0.014794   0.000657   0.000608
   48  O  2 YY   -0.004597  -0.003209  -0.006784   0.001629  -0.002413
   49  O  2 ZZ   -0.002244  -0.004659  -0.006379  -0.006623   0.000054
   50  O  2 XY   -0.004314  -0.001303   0.003231  -0.001250  -0.005759
   51  O  2 XZ    0.003393   0.004876  -0.000485   0.003494  -0.004751
   52  O  2 YZ   -0.005186   0.002029  -0.001047  -0.000679  -0.000535
   53  O  2 XX    0.190964   0.297726   0.353366   0.016878  -0.021577
   54  O  2 YY    0.334845  -0.234467  -0.044258   0.553864   0.163432
   55  O  2 ZZ   -0.010620   0.282775  -0.190443  -0.735511  -0.349355
   56  O  2 XY   -0.139057   0.075030   0.073441   0.011003   0.032018
   57  O  2 XZ   -0.027416   0.095908   0.083542   0.132860   0.108736
   58  O  2 YZ    0.340591  -0.194980   0.006686  -0.027579  -0.525050
   59  H  3  S   -0.077859  -0.034607   0.037474  -0.008744   0.125864
   60  H  3  S    0.777733   0.309291  -0.320763   0.014649  -0.456951
   61  H  3  S   -0.779833  -0.663102   0.311153  -0.090341   0.373644
   62  H  3  S    0.338674   0.370843  -0.252857  -0.098623   0.240609
   63  H  3  X    0.241802  -0.295318  -0.145767   0.096005   0.066423
   64  H  3  Y    0.257622  -0.072760  -0.334978  -0.069125   0.583270
   65  H  3  Z   -0.128883   0.167436   0.250351   0.059880   0.143679
   66  H  4  S   -0.081867  -0.034256  -0.034209  -0.014673   0.158130
   67  H  4  S    0.420602  -0.009977   0.207747   0.095180  -0.668268
   68  H  4  S   -0.484122  -0.089821  -0.130109  -0.049463   0.581897
   69  H  4  S    0.689129   0.359767   0.080434   0.089784  -0.182438
   70  H  4  X    0.346887  -0.256021   0.114483  -0.064001  -0.339490
   71  H  4  Y    0.053255  -0.182480   0.240655  -0.485446   0.200340
   72  H  4  Z   -0.125095   0.227065  -0.250061   0.499112  -0.291093
   73  H  5  S   -0.054718  -0.031202  -0.056191  -0.019815   0.125486
   74  H  5  S    0.681752   0.008946   0.223355   0.089635  -0.706088
   75  H  5  S   -0.410165  -0.252738  -0.233845  -0.051965   0.338350
   76  H  5  S   -0.093080  -0.012153   0.214172  -0.060247  -0.044680
   77  H  5  X    0.192934  -0.083474   0.150136  -0.029968   0.323073
   78  H  5  Y    0.120237  -0.271267   0.373561   0.068056  -0.099901
   79  H  5  Z   -0.053229   0.249039  -0.269197   0.003515  -0.045562

                     46         47         48         49         50
                    2.2037     2.2837     2.3305     2.3770     2.4327
                     A          A          A          A          A   
    1  C  1  S   -0.025923  -0.002953  -0.019110  -0.005510  -0.000720
    2  C  1  S   -0.046787  -0.006455  -0.035806  -0.009444   0.001032
    3  C  1  X    0.221570   0.002234   0.144652   0.108510   0.052983
    4  C  1  Y    0.047422   0.082453  -0.252618   0.078167   0.058832
    5  C  1  Z    0.095236   0.068278  -0.206159   0.143483   0.241505
    6  C  1  S   -0.439310   0.164355  -0.176596  -0.299149  -0.872354
    7  C  1  X    0.365201   0.218222   0.284829  -0.255347  -0.315089
    8  C  1  Y   -0.081858  -0.082757  -0.089490   0.252988  -0.173226
    9  C  1  Z    0.022143  -0.061839   0.008888   0.082728   0.216875
   10  C  1  S    3.301616   1.175477   2.985900  -2.703559   0.753632
   11  C  1  X    1.597862   0.529493   1.437230  -1.005970   0.031776
   12  C  1  Y    0.091870   0.176717  -0.779860   0.549390  -0.013232
   13  C  1  Z    0.564840   0.473434  -0.268303   0.434568   0.556243
   14  C  1  S    0.571502   0.313197   0.811979  -0.720226  -0.013381
   15  C  1  X   -0.093174   0.046464  -0.267700  -0.012411   0.041219
   16  C  1  Y    0.192201   0.141909  -0.311801  -0.170194   0.281296
   17  C  1  Z    0.147704   0.166478  -0.587504  -0.127527   0.232952
   18  C  1 XX   -0.059301  -0.008771  -0.027190  -0.036995   0.000067
   19  C  1 YY    0.034442   0.031184   0.043482   0.009640  -0.000898
   20  C  1 ZZ    0.051134  -0.029513   0.007861   0.024010   0.014494
   21  C  1 XY    0.002914   0.018453   0.005166  -0.003097   0.022917
   22  C  1 XZ   -0.022041  -0.015008  -0.025369   0.018763   0.002518
   23  C  1 YZ    0.006464   0.006217   0.013366  -0.024669   0.024016
   24  C  1 XX    0.988457   0.540708   0.642956   0.119439  -0.912058
   25  C  1 YY   -0.977204   0.501640  -0.339026   0.048793  -0.222706
   26  C  1 ZZ   -0.710708  -0.526244  -0.894691  -0.326181  -0.597299
   27  C  1 XY   -0.314868   0.008605  -0.154436   0.707973  -0.179421
   28  C  1 XZ   -0.048439   0.252639   0.137641   0.421557  -0.103323
   29  C  1 YZ    0.024337   0.310770  -0.077430  -0.199439  -0.122604
   30  O  2  S    0.020199  -0.001884   0.014958   0.012566   0.006522
   31  O  2  S    0.034409  -0.003049   0.027485   0.020084   0.009765
   32  O  2  X    0.119394   0.009477   0.069452   0.049708   0.016420
   33  O  2  Y    0.009669  -0.030041   0.019333  -0.024541  -0.013862
   34  O  2  Z    0.051138  -0.006127   0.058465  -0.004993   0.021481
   35  O  2  S   -0.612540  -0.026850  -0.289743  -0.827704  -0.167141
   36  O  2  X    0.393651   0.071023   0.223490   0.153670   0.010328
   37  O  2  Y    0.064793  -0.082031   0.078063  -0.138848  -0.049678
   38  O  2  Z    0.186578   0.002369   0.196510  -0.054153   0.038685
   39  O  2  S   -1.377861  -1.168969  -1.703735   2.991991   1.434645
   40  O  2  X   -0.146783   0.337655   0.175552  -1.097555  -0.581530
   41  O  2  Y    0.125338   0.136888   0.122979  -0.461745   0.401647
   42  O  2  Z    0.069894   0.087766  -0.050256  -0.480317  -0.405203
   43  O  2  S   -1.646505  -0.820422  -1.381020   1.516444  -0.353200
   44  O  2  X    0.636663   0.251479   0.557252  -0.421031   0.173464
   45  O  2  Y   -0.038838  -0.019526   0.074966   0.045020  -0.069203
   46  O  2  Z    0.056179  -0.010135   0.282283  -0.109206  -0.040587
   47  O  2 XX    0.004535   0.004056  -0.001264  -0.001726  -0.000731
   48  O  2 YY   -0.014909   0.001511  -0.003773  -0.005444  -0.001485
   49  O  2 ZZ   -0.005694  -0.005073  -0.002768  -0.005703  -0.002567
   50  O  2 XY    0.001361  -0.005498   0.006612  -0.007162  -0.004229
   51  O  2 XZ    0.006880  -0.000688   0.011715  -0.003676   0.003715
   52  O  2 YZ    0.000537  -0.006656   0.006800  -0.001094   0.006113
   53  O  2 XX    0.066710   0.085791   0.018655  -0.244551  -0.229640
   54  O  2 YY   -0.248967  -0.440441  -0.250580  -0.593205  -0.163672
   55  O  2 ZZ   -0.339052   0.312517   0.113566  -0.114352   0.182946
   56  O  2 XY   -0.114177  -0.078795  -0.202928   0.343283  -0.370130
   57  O  2 XZ    0.024252  -0.167398  -0.087058   0.304512   0.453380
   58  O  2 YZ   -0.217089  -0.424600  -0.036703   0.458383   0.234247
   59  H  3  S    0.050596  -0.094462  -0.007959   0.370929  -0.036360
   60  H  3  S   -0.086629   0.094234   0.009620  -0.508299   0.443645
   61  H  3  S    0.392467  -0.187935  -0.006861   0.815514   0.025273
   62  H  3  S   -0.324407   0.151604  -0.503967  -0.323161   0.039270
   63  H  3  X    0.460333   0.091294   0.115252   0.620921   0.065188
   64  H  3  Y    0.130608   0.162248   0.234717  -0.082866   0.423189
   65  H  3  Z   -0.306404  -0.411888  -0.192903  -0.099162   0.529250
   66  H  4  S   -0.093248  -0.033006   0.164242  -0.076964  -0.144551
   67  H  4  S    0.175201  -0.202672   0.053730   0.138939   0.129730
   68  H  4  S   -0.324704  -0.192935   0.841071  -0.439397  -0.433910
   69  H  4  S   -0.107504  -0.147558   0.068259   0.447458  -0.097221
   70  H  4  X    0.265781   0.144860  -0.138370  -0.523838  -0.234733
   71  H  4  Y    0.251591  -0.130650  -0.581538   0.011690   0.155784
   72  H  4  Z   -0.035861   0.495794  -0.334528   0.156020   0.201600
   73  H  5  S   -0.020199   0.163828  -0.224070  -0.244792   0.130429
[...]
   36  O  2  X   -0.002858  -0.003121   0.001302  -0.009473   0.008612
   37  O  2  Y    0.015722   0.013449   0.000269   0.040848  -0.047377
   38  O  2  Z   -0.013799   0.015971   0.000029   0.048127   0.041911
   39  O  2  S    0.000070   0.000021  -1.006116   0.000016  -0.000043
   40  O  2  X    0.002708   0.002956   0.053675   0.013615  -0.012376
   41  O  2  Y   -0.014921  -0.012756   0.010906  -0.058712   0.068080
   42  O  2  Z    0.013095  -0.015148   0.001308  -0.069165  -0.060217
   43  O  2  S   -0.000160   0.000001   3.059692  -0.000036   0.000285
   44  O  2  X   -0.018705  -0.020441  -0.465385  -0.127136   0.115522
   45  O  2  Y    0.102948   0.088024  -0.094556   0.548150  -0.635776
   46  O  2  Z   -0.090362   0.104547  -0.011341   0.645815   0.562400
   47  O  2 XX   -0.000023  -0.000028   0.008316   0.000240  -0.000240
   48  O  2 YY   -0.000023  -0.000190   0.007012  -0.001605   0.000574
   49  O  2 ZZ    0.000045   0.000218   0.006957   0.001365  -0.000333
   50  O  2 XY    0.000072   0.000095   0.000319  -0.000384   0.000707
   51  O  2 XZ   -0.000003   0.000042   0.000038  -0.000959  -0.001063
   52  O  2 YZ   -0.000254   0.000066   0.000008   0.000143   0.001456
   53  O  2 XX   -0.000929  -0.001002   0.124851   0.000489  -0.000391
   54  O  2 YY    0.001097   0.001210   0.134593   0.002625  -0.000218
   55  O  2 ZZ   -0.000191  -0.000212   0.135006  -0.003120   0.000629
   56  O  2 XY    0.002812   0.002328  -0.002385  -0.001569   0.001277
   57  O  2 XZ   -0.002674   0.003005  -0.000286  -0.000865  -0.000282
   58  O  2 YZ   -0.000073   0.000588  -0.000058  -0.000981  -0.003649
   59  H  3  S   -0.024784   0.003009  -0.008769  -0.004341  -0.036983
   60  H  3  S    0.003646  -0.000452   0.047819   0.025384   0.216328
   61  H  3  S   -0.632033   0.076736  -0.191198  -0.126706  -1.079907
   62  H  3  S    5.339765  -0.648023  -0.437151  -0.613232  -5.224732
   63  H  3  X   -0.008034   0.001706  -0.007129   0.003322   0.009560
   64  H  3  Y    0.004010  -0.003726  -0.002499  -0.010096  -0.003055
   65  H  3  Z   -0.007055  -0.002161   0.000955  -0.008137   0.007924
   66  H  4  S    0.009788  -0.022969  -0.008771   0.034200   0.014731
   67  H  4  S   -0.001439   0.003384   0.047824  -0.200032  -0.086171
   68  H  4  S    0.249561  -0.585717  -0.191216   0.998553   0.430192
   69  H  4  S   -2.108923   4.948188  -0.437128   4.830931   2.081081
   70  H  4  X    0.003838  -0.006932  -0.007181  -0.007829  -0.006036
   71  H  4  Y   -0.004285  -0.000566  -0.001936  -0.004153   0.011845
   72  H  4  Z   -0.001999   0.008152  -0.001635   0.009345  -0.000417
   73  H  5  S    0.014997   0.019962  -0.008772  -0.029859   0.022251
   74  H  5  S   -0.002195  -0.002943   0.047826   0.174635  -0.130164
   75  H  5  S    0.382383   0.509070  -0.191223  -0.871702   0.649770
   76  H  5  S   -3.231148  -4.300239  -0.437094  -4.217572   3.143349
   77  H  5  X    0.003297   0.004243  -0.007613   0.005471  -0.004402
   78  H  5  Y    0.005220   0.008523  -0.000021   0.010094  -0.003973
   79  H  5  Z    0.004716  -0.000968   0.000148  -0.006105  -0.011770

                     16         17         18         19
                    0.3382     0.4418     0.4977     0.4977
                     A          A          A          A   
    1  C  1  S    0.025770  -0.025657   0.000000  -0.000003
    2  C  1  S    0.045235  -0.058412   0.000001  -0.000005
    3  C  1  X    0.045926   0.000379  -0.026261  -0.017162
    4  C  1  Y    0.009337   0.000071   0.117238   0.098789
    5  C  1  Z    0.001115   0.000010   0.100200  -0.120087
    6  C  1  S   -0.398392  -2.335828   0.000002  -0.000096
    7  C  1  X    0.079230  -0.084210  -0.020344  -0.013282
    8  C  1  Y    0.016107  -0.017120   0.090788   0.076499
    9  C  1  Z    0.001920  -0.002049   0.077596  -0.092990
   10  C  1  S    1.618689  10.218390  -0.000035   0.000506
   11  C  1  X    0.741143   0.229828  -0.276495  -0.180787
   12  C  1  Y    0.150616   0.046638   1.234192   1.039975
   13  C  1  Z    0.018060   0.005617   1.054800  -1.264174
   14  C  1  S   16.763676   5.886530  -0.000147   0.000682
   15  C  1  X   -1.585884  -0.997008  -0.010242  -0.006825
   16  C  1  Y   -0.322540  -0.202547   0.045504   0.038413
   17  C  1  Z   -0.038285  -0.024186   0.038878  -0.046710
   18  C  1 XX   -0.001198  -0.027156  -0.000922  -0.000730
   19  C  1 YY   -0.003082  -0.027372   0.009933   0.001359
   20  C  1 ZZ   -0.003161  -0.027380  -0.009012  -0.000632
   21  C  1 XY    0.000462   0.000053   0.001084   0.002326
   22  C  1 XZ    0.000055   0.000006   0.003146  -0.005461
   23  C  1 YZ    0.000011   0.000002   0.000146   0.009719
   24  C  1 XX   -0.036780  -1.399888   0.016328   0.011034
   25  C  1 YY   -0.170758  -1.408761  -0.046316  -0.014814
   26  C  1 ZZ   -0.176451  -1.409147   0.029993   0.003590
   27  C  1 XY    0.032801   0.002180  -0.036085  -0.035587
   28  C  1 XZ    0.003924   0.000257  -0.039656   0.053715
   29  C  1 YZ    0.000805   0.000058  -0.007214  -0.027292
   30  O  2  S    0.005428   0.010165   0.000002   0.000002
   31  O  2  S    0.004766   0.022125   0.000004   0.000003
   32  O  2  X   -0.029232  -0.033051   0.003535   0.002317
   33  O  2  Y   -0.005943  -0.006721  -0.015784  -0.013309
   34  O  2  Z   -0.000711  -0.000804  -0.013489   0.016178
   35  O  2  S   -0.138716   0.013203   0.000004  -0.000007
   36  O  2  X   -0.033136  -0.015949   0.006397   0.004186
   37  O  2  Y   -0.006738  -0.003246  -0.028546  -0.024060
   38  O  2  Z   -0.000805  -0.000388  -0.024399   0.029249
   39  O  2  S    0.325965  -0.423886  -0.000067   0.000004
   40  O  2  X    0.086586  -0.304513   0.007034   0.004619
   41  O  2  Y    0.017592  -0.061905  -0.031546  -0.026631
   42  O  2  Z    0.002111  -0.007411  -0.026946   0.032358
   43  O  2  S   -4.321013  -3.110322   0.000064   0.000043
   44  O  2  X    1.184815   2.517729   0.101237   0.065982
   45  O  2  Y    0.240791   0.511710  -0.451232  -0.380168
   46  O  2  Z    0.028797   0.061266  -0.385709   0.462150
   47  O  2 XX   -0.002137   0.003216   0.001371   0.000884
   48  O  2 YY   -0.004364   0.003451  -0.000481  -0.000992
   49  O  2 ZZ   -0.004458   0.003461  -0.000889   0.000109
   50  O  2 XY    0.000545  -0.000057  -0.003470  -0.002838
   51  O  2 XZ    0.000065  -0.000007  -0.002904   0.003377
   52  O  2 YZ    0.000013  -0.000001  -0.000727   0.001514
   53  O  2 XX   -0.086889   0.085988   0.002285   0.001437
   54  O  2 YY   -0.065920   0.039544   0.001407  -0.001486
   55  O  2 ZZ   -0.065030   0.037571  -0.003663   0.000053
   56  O  2 XY   -0.005132   0.011371  -0.006037  -0.004609
   57  O  2 XZ   -0.000614   0.001361  -0.004543   0.004870
   58  O  2 YZ   -0.000125   0.000276  -0.001283   0.004964
   59  H  3  S   -0.024687  -0.015765  -0.001200  -0.028512
   60  H  3  S    0.200121   0.083771   0.001251   0.029941
   61  H  3  S   -1.783500  -2.135967  -0.123685  -2.934548
   62  H  3  S   -3.516184  -0.876358   0.074384   1.763983
   63  H  3  X   -0.001882   0.004041  -0.001044   0.000255
   64  H  3  Y    0.000026  -0.011800   0.004615  -0.001288
   65  H  3  Z   -0.000485   0.013655   0.004389   0.001041
   66  H  4  S   -0.024686  -0.015763  -0.024093   0.015295
   67  H  4  S    0.200104   0.083730   0.025222  -0.016045
   68  H  4  S   -1.783565  -2.135781  -2.478898   1.574015
   69  H  4  S   -3.516347  -0.876315   1.490658  -0.946641
   70  H  4  X   -0.001866   0.003420  -0.000506  -0.001076
   71  H  4  Y   -0.000194  -0.005023   0.002829   0.005355
   72  H  4  Z    0.000523  -0.017466  -0.002378  -0.000818
   73  H  5  S   -0.024686  -0.015764   0.025297   0.013210
   74  H  5  S    0.200092   0.083705  -0.026493  -0.013856
   75  H  5  S   -1.783539  -2.135790   2.602878   1.359669
   76  H  5  S   -3.516296  -0.876025  -1.565058  -0.817700
   77  H  5  X   -0.001698  -0.001777   0.000338   0.000035
   78  H  5  Y   -0.000940   0.017978  -0.002036   0.000485
   79  H  5  Z   -0.000171   0.003948   0.002611  -0.005755

     ----------------------------------------------------------------
     PROPERTY VALUES FOR THE UHF   SELF-CONSISTENT FIELD WAVEFUNCTION
     ----------------------------------------------------------------

          -----------------
          ENERGY COMPONENTS
          -----------------

         WAVEFUNCTION NORMALIZATION =       1.0000000000

                ONE ELECTRON ENERGY =    -230.2773983057
                TWO ELECTRON ENERGY =      81.1223916636
           NUCLEAR REPULSION ENERGY =      34.7072830234
                                      ------------------
                       TOTAL ENERGY =    -114.4477236188

 ELECTRON-ELECTRON POTENTIAL ENERGY =      81.1223916636
  NUCLEUS-ELECTRON POTENTIAL ENERGY =    -344.6575657120
   NUCLEUS-NUCLEUS POTENTIAL ENERGY =      34.7072830234
                                      ------------------
             TOTAL POTENTIAL ENERGY =    -228.8278910250
               TOTAL KINETIC ENERGY =     114.3801674063
                 VIRIAL RATIO (V/T) =       2.0005906287

          ---------------------------------------
          MULLIKEN AND LOWDIN POPULATION ANALYSES
          ---------------------------------------

     ATOMIC MULLIKEN POPULATION IN EACH MOLECULAR ORBITAL
        ALPHA ORBITALS

                      1          2          3          4          5

                  1.000000   1.000000   1.000000   1.000000   1.000000

    1             0.000096   1.000032   0.230584   0.469124   0.438281
    2             0.999910  -0.000064   0.752152   0.153272   0.183545
    3            -0.000002   0.000011   0.005755   0.125882   0.220296
    4            -0.000002   0.000011   0.005755   0.125864   0.008497
    5            -0.000002   0.000011   0.005755   0.125857   0.149380

                      6          7          8          9

                  1.000000   1.000000   1.000000   1.000000

    1             0.438280   0.258948   0.065973   0.065978
    2             0.183568   0.684898   0.747440   0.747416
    3             0.031817   0.018712   0.122078   0.002302
    4             0.243611   0.018717   0.018338   0.106071
    5             0.102724   0.018725   0.046172   0.078233

     ATOMIC MULLIKEN POPULATION IN EACH MOLECULAR ORBITAL
         BETA ORBITALS

                      1          2          3          4          5

                  1.000000   1.000000   1.000000   1.000000   1.000000

    1             0.000096   1.000032   0.230584   0.469124   0.438281
    2             0.999910  -0.000064   0.752152   0.153272   0.183545
    3            -0.000002   0.000011   0.005755   0.125882   0.220296
    4            -0.000002   0.000011   0.005755   0.125864   0.008497
    5            -0.000002   0.000011   0.005755   0.125857   0.149380

                      6          7          8          9

                  1.000000   1.000000   1.000000   1.000000

    1             0.438280   0.258948   0.065973   0.065978
    2             0.183568   0.684898   0.747440   0.747416
    3             0.031817   0.018712   0.122078   0.002302
    4             0.243611   0.018717   0.018338   0.106071
    5             0.102724   0.018725   0.046172   0.078233

     ATOMIC SPIN POPULATION (ALPHA MINUS BETA)
       ATOM         MULL.POP.                    LOW.POP.
    1 C             0.000000                     0.000000
    2 O             0.000000                     0.000000
    3 H             0.000000                     0.000000
    4 H             0.000000                     0.000000
    5 H             0.000000                     0.000000


          ********* ALL ELECTRONS ********

               ----- POPULATIONS IN EACH AO -----
                             MULLIKEN      LOWDIN
              1  C  1  S      1.10377     1.04574
              2  C  1  S      0.89029     0.90622
              3  C  1  X      0.19504     0.19139
              4  C  1  Y      0.18376     0.17666
              5  C  1  Z      0.18328     0.17592
              6  C  1  S      0.70344     0.27277
              7  C  1  X      0.47312     0.44193
              8  C  1  Y      0.46206     0.43235
              9  C  1  Z      0.46159     0.43222
             10  C  1  S      0.28585     0.17578
             11  C  1  X      0.15316     0.22353
             12  C  1  Y      0.25245     0.33145
             13  C  1  Z      0.25667     0.33668
             14  C  1  S      0.03227     0.05271
             15  C  1  X     -0.00025     0.03013
             16  C  1  Y      0.02115     0.05537
             17  C  1  Z      0.02206     0.05648
             18  C  1 XX      0.02465     0.12637
             19  C  1 YY      0.01036     0.10386
             20  C  1 ZZ      0.00832     0.10107
             21  C  1 XY      0.00767     0.01008
             22  C  1 XZ      0.01019     0.01339
             23  C  1 YZ      0.00208     0.00220
             24  C  1 XX      0.01467     0.14304
             25  C  1 YY      0.02879     0.12220
             26  C  1 ZZ      0.01965     0.09560
             27  C  1 XY      0.05494     0.16460
             28  C  1 XZ      0.07147     0.21928
             29  C  1 YZ      0.00208     0.02091
             30  O  2  S      1.08367     1.03120
             31  O  2  S      0.91197     0.92707
             32  O  2  X      0.24645     0.24720
             33  O  2  Y      0.33426     0.34021
             34  O  2  Z      0.33799     0.34405
             35  O  2  S      0.97225     0.40221
             36  O  2  X      0.59669     0.58628
             37  O  2  Y      0.74058     0.71601
             38  O  2  Z      0.74668     0.71949
             39  O  2  S      0.75560     0.30381
             40  O  2  X      0.38738     0.45653
             41  O  2  Y      0.65428     0.56353
             42  O  2  Z      0.66561     0.56535
             43  O  2  S      0.09199     0.11174
             44  O  2  X      0.02323     0.10695
             45  O  2  Y      0.10231     0.15483
             46  O  2  Z      0.10567     0.15662
             47  O  2 XX      0.01257     0.15636
             48  O  2 YY      0.00897     0.15300
             49  O  2 ZZ      0.00888     0.15290
             50  O  2 XY      0.00043     0.00046
             51  O  2 XZ      0.00028     0.00033
             52  O  2 YZ      0.00001     0.00002
             53  O  2 XX      0.05152     0.16594
             54  O  2 YY      0.02734     0.14331
             55  O  2 ZZ      0.02652     0.14201
             56  O  2 XY      0.00577     0.01368
             57  O  2 XZ      0.00513     0.01324
             58  O  2 YZ      0.00024     0.00051
             59  H  3  S      0.27307     0.26676
             60  H  3  S      0.56971     0.42644
             61  H  3  S      0.17980     0.17399
             62  H  3  S      0.00993     0.03628
             63  H  3  X      0.00530     0.01198
             64  H  3  Y      0.00669     0.01529
             65  H  3  Z      0.00920     0.01881
             66  H  4  S      0.27306     0.26834
             67  H  4  S      0.56971     0.42884
             68  H  4  S      0.17983     0.17427
             69  H  4  S      0.00994     0.03629
             70  H  4  X      0.00491     0.01161
             71  H  4  Y      0.00384     0.01182
             72  H  4  Z      0.01243     0.02336
             73  H  5  S      0.27306     0.27070
             74  H  5  S      0.56971     0.43233
             75  H  5  S      0.17981     0.17469
             76  H  5  S      0.00994     0.03631
             77  H  5  X      0.00258     0.00869
             78  H  5  Y      0.01460     0.02621
             79  H  5  Z      0.00401     0.01224

          ----- MULLIKEN ATOMIC OVERLAP POPULATIONS -----
          (OFF-DIAGONAL ELEMENTS NEED TO BE MULTIPLIED BY 2)

             1           2           3           4           5

    1    4.4685648
    2    0.2764462   8.9659918
    3    0.3964699  -0.1126933   1.1038325
    4    0.3964981  -0.1127205  -0.1669575   1.1038427
    5    0.3966092  -0.1127488  -0.1669489  -0.1669403   1.1037399

          TOTAL MULLIKEN AND LOWDIN ATOMIC POPULATIONS
       ATOM         MULL.POP.    CHARGE          LOW.POP.     CHARGE
    1 C             5.934588    0.065412         6.459931   -0.459931
    2 O             8.904275   -0.904275         8.674824   -0.674824
    3 H             1.053703   -0.053703         0.949547    0.050453
    4 H             1.053723   -0.053723         0.954527    0.045473
    5 H             1.053711   -0.053711         0.961170    0.038830

          -------------------------------
          BOND ORDER AND VALENCE ANALYSIS     BOND ORDER THRESHOLD=0.050
          -------------------------------

                   BOND                       BOND                       BOND
  ATOM PAIR DIST  ORDER      ATOM PAIR DIST  ORDER      ATOM PAIR DIST  ORDER
    1   2  1.325  1.237        1   3  1.122  0.973        1   4  1.122  0.973
    1   5  1.122  0.973

                       TOTAL       BONDED        FREE
      ATOM            VALENCE     VALENCE     VALENCE
    1 C                 4.155       4.155      -0.000
    2 O                 1.129       1.129      -0.000
    3 H                 0.857       0.857      -0.000
    4 H                 0.857       0.857      -0.000
    5 H                 0.857       0.857      -0.000

          -----------------------------------------
          ATOMIC SPIN DENSITY AT THE NUCLEUS (A.U.)
          -----------------------------------------
                            SPIN DENS    ALPHA DENS     BETA DENS
    1  C            6.0     0.0000000      59.71275      59.71275
    2  O            8.0     0.0000000     147.47451     147.47451
    3  H            1.0     0.0000000       0.21981       0.21981
    4  H            1.0     0.0000000       0.21980       0.21980
    5  H            1.0     0.0000000       0.21980       0.21980

          ---------------------
          ELECTROSTATIC MOMENTS
          ---------------------

 POINT   1           X           Y           Z (BOHR)    CHARGE
                 1.217313    0.247440   -0.272771       -1.00 (A.U.)
         DX          DY          DZ         /D/  (DEBYE)
    -2.192962   -0.445645   -0.053451    2.238424
 ...... END OF PROPERTY EVALUATION ......
 STEP CPU TIME =     0.02 TOTAL CPU TIME =       45.3 (    0.8 MIN)
 TOTAL WALL CLOCK TIME=       45.5 SECONDS, CPU UTILIZATION IS  99.56%
  $VIB   
          IVIB=   0 IATOM=   0 ICOORD=   0 E=     -114.4477236188
 -3.810373461E-05 1.535583335E-05-2.301791108E-05 5.373181173E-05 5.924889869E-07
  6.548720410E-06-8.449497316E-06-3.531455244E-06 7.528010830E-06-8.391252919E-06
 -7.018952578E-07 6.426286134E-06 1.212677660E-06-1.171497151E-05 2.514893439E-06
 -2.192962354E+00-4.456451855E-01-5.345068922E-02
 ......END OF GEOMETRY SEARCH......
 STEP CPU TIME =     0.00 TOTAL CPU TIME =       45.3 (    0.8 MIN)
 TOTAL WALL CLOCK TIME=       45.5 SECONDS, CPU UTILIZATION IS  99.56%
               996542  WORDS OF DYNAMIC MEMORY USED
 EXECUTION OF GAMESS TERMINATED NORMALLY Wed Mar  9 22:50:07 2016
 DDI: 263640 bytes (0.3 MB / 0 MWords) used by master data server.

 ----------------------------------------
 CPU timing information for all processes
 ========================================
 0: 41.764 + 3.508 = 45.272
 ----------------------------------------
 ddikick.x: exited gracefully.
----- accounting info -----
Files used on the master node andre-mint were:
-rw-r--r-- 1 andrepd andrepd   906421 Mar  9 22:50 ./7_CH3O-_b.dat
-rw-r--r-- 1 andrepd andrepd      387 Mar  9 22:49 ./7_CH3O-_b.F05
-rw-r--r-- 1 andrepd andrepd 57965152 Mar  9 22:50 ./7_CH3O-_b.F08
-rw-r--r-- 1 andrepd andrepd  2192240 Mar  9 22:50 ./7_CH3O-_b.F10
-rw-r--r-- 1 andrepd andrepd      387 Mar  9 22:49 ./7_CH3O-_b.inp
-rw-r--r-- 1 andrepd andrepd   391421 Mar  9 22:50 ./7_CH3O-_b.out
Qua Mar  9 22:50:10 WET 2016
0.0u 0.0s 0:48.56 0.1% 0+0k 0+8io 0pf+0w
