----- GAMESS execution script 'rungms' -----
This job is running on host andre-mint
under operating system Linux at Qui Mar 10 23:52:31 WET 2016
Available scratch disk space (Kbyte units) at beginning of the job is
Filesystem     1K-blocks     Used Available Use% Mounted on
/dev/sda5       72784020 70999540    286516 100% /home
GAMESS temporary binary files will be written to .
GAMESS supplementary output files will be written to .
Copying input file 7_CH3O-_b.inp to your run's scratch directory...

 Distributed Data Interface kickoff program.
 Initiating 1 compute processes on 1 nodes to run the following command:
 /home/andrepd/Development/gamess/gamess//gamess.69.x 7_CH3O-_b 

          ******************************************************
          *         GAMESS VERSION =  5 DEC 2014 (R1)          *
          *             FROM IOWA STATE UNIVERSITY             *
          * M.W.SCHMIDT, K.K.BALDRIDGE, J.A.BOATZ, S.T.ELBERT, *
          *   M.S.GORDON, J.H.JENSEN, S.KOSEKI, N.MATSUNAGA,   *
          *          K.A.NGUYEN, S.J.SU, T.L.WINDUS,           *
          *       TOGETHER WITH M.DUPUIS, J.A.MONTGOMERY       *
          *         J.COMPUT.CHEM.  14, 1347-1363(1993)        *
          **************** 64 BIT LINUX VERSION ****************

  SINCE 1993, STUDENTS AND POSTDOCS WORKING AT IOWA STATE UNIVERSITY
  AND ALSO IN THEIR VARIOUS JOBS AFTER LEAVING ISU HAVE MADE IMPORTANT
  CONTRIBUTIONS TO THE CODE:
     IVANA ADAMOVIC, CHRISTINE AIKENS, YURI ALEXEEV, POOJA ARORA,
     ANDREY ASADCHEV, ROB BELL, PRADIPTA BANDYOPADHYAY, JONATHAN BENTZ,
     BRETT BODE, KURT BRORSEN, CALEB CARLIN, GALINA CHABAN, WEI CHEN,
     CHEOL HO CHOI, PAUL DAY, ALBERT DEFUSCO, NUWAN DESILVA, TIM DUDLEY,
     DMITRI FEDOROV, GRAHAM FLETCHER, MARK FREITAG, KURT GLAESEMANN,
     DAN KEMP, GRANT MERRILL, NORIYUKI MINEZAWA, JONATHAN MULLIN,
     TAKESHI NAGATA, SEAN NEDD, HEATHER NETZLOFF, BOSILJKA NJEGIC, RYAN OLSON,
     MIKE PAK, SPENCER PRUITT, LUKE ROSKOP, JIM SHOEMAKER, LYUDMILA SLIPCHENKO,
     TONY SMITH, SAROM SOK, JIE SONG, TETSUYA TAKETSUGU, SIMON WEBB,
     PENG XU, SOOHAENG YOO, FEDERICO ZAHARIEV

  ADDITIONAL CODE HAS BEEN PROVIDED BY COLLABORATORS IN OTHER GROUPS:
     IOWA STATE UNIVERSITY:
          JOE IVANIC, AARON WEST, LAIMUTIS BYTAUTAS, KLAUS RUEDENBERG
     UNIVERSITY OF TOKYO: KIMIHIKO HIRAO, TAKAHITO NAKAJIMA,
          TAKAO TSUNEDA, MUNEAKI KAMIYA, SUSUMU YANAGISAWA,
          KIYOSHI YAGI, MAHITO CHIBA, SEIKEN TOKURA, NAOAKI KAWAKAMI
     UNIVERSITY OF AARHUS: FRANK JENSEN
     UNIVERSITY OF IOWA: VISVALDAS KAIRYS, HUI LI
     NATIONAL INST. OF STANDARDS AND TECHNOLOGY: WALT STEVENS, DAVID GARMER
     UNIVERSITY OF PISA: BENEDETTA MENNUCCI, JACOPO TOMASI
     UNIVERSITY OF MEMPHIS: HENRY KURTZ, PRAKASHAN KORAMBATH
     UNIVERSITY OF ALBERTA: TOBY ZENG, MARIUSZ KLOBUKOWSKI
     UNIVERSITY OF NEW ENGLAND: MARK SPACKMAN
     MIE UNIVERSITY: HIROAKI UMEDA
     NAT. INST. OF ADVANCED INDUSTRIAL SCIENCE AND TECHNOLOGY: KAZUO KITAURA
     MICHIGAN STATE UNIVERSITY:
          KAROL KOWALSKI, MARTA WLOCH, JEFFREY GOUR, JESSE LUTZ,
          WEI LI, PIOTR PIECUCH
     UNIVERSITY OF SILESIA: MONIKA MUSIAL, STANISLAW KUCHARSKI
     FACULTES UNIVERSITAIRES NOTRE-DAME DE LA PAIX:
          OLIVIER QUINET, BENOIT CHAMPAGNE
     UNIVERSITY OF CALIFORNIA - SANTA BARBARA: BERNARD KIRTMAN
     INSTITUTE FOR MOLECULAR SCIENCE:
          KAZUYA ISHIMURA, MICHIO KATOUDA, AND SHIGERU NAGASE
     UNIVERSITY OF NOTRE DAME: ANNA POMOGAEVA, DAN CHIPMAN
     KYUSHU UNIVERSITY:
          HARUYUKI NAKANO,
          FENG LONG GU, JACEK KORCHOWIEC, MARCIN MAKOWSKI, AND YURIKO AOKI,
          HIROTOSHI MORI AND EISAKU MIYOSHI
     PENNSYLVANIA STATE UNIVERSITY:
          TZVETELIN IORDANOV, CHET SWALINA, JONATHAN SKONE,
          SHARON HAMMES-SCHIFFER
     WASEDA UNIVERSITY:
          MASATO KOBAYASHI, TOMOKO AKAMA, TSUGUKI TOUMA,
          TAKESHI YOSHIKAWA, YASUHIRO IKABATA, HIROMI NAKAI
     NANJING UNIVERSITY: SHUHUA LI
     UNIVERSITY OF NEBRASKA:
          PEIFENG SU, DEJUN SI, NANDUN THELLAMUREGE, YALI WANG, HUI LI
     UNIVERSITY OF ZURICH: ROBERTO PEVERATI, KIM BALDRIDGE
     N. COPERNICUS UNIVERSITY AND JACKSON STATE UNIVERSITY:
          MARIA BARYSZ
     UNIVERSITY OF COPENHAGEN: CASPER STEINMANN
     TOKYO INSTITUTE OF TECHNOLOGY: HIROYA NAKATA
     NAGOYA UNIVERSITY: YOSHIO NISHIMOTO, STEPHAN IRLE

 EXECUTION OF GAMESS BEGUN Thu Mar 10 23:52:31 2016

            ECHO OF THE FIRST FEW INPUT CARDS -
 INPUT CARD>!   File created by MacMolPlt 7.6.2                                             
 INPUT CARD> $CONTRL SCFTYP=UHF RUNTYP=OPTIMIZE MAXIT=200 MULT=1 ICHARG=-1 $END             
 INPUT CARD> $BASIS GBASIS=N311 NGAUSS=6 NDFUNC=1 NPFUNC=1 DIFFSP=.TRUE. DIFFS=.TRUE. $END  
 INPUT CARD>! $SCF DIRSCF=.TRUE. $END                                                       
 INPUT CARD> $DATA                                                                          
 INPUT CARD>CH3OH                                                                           
 INPUT CARD>C1                                                                              
 INPUT CARD>C  6.0  0.00  0.00  0.00                                                        
 INPUT CARD>O  8.0  1.00  0.00  0.20                                                        
 INPUT CARD>H  1.0  -1.00  0.00  -1.00                                                      
 INPUT CARD>H  1.0  0.00  1.00  1.00                                                        
 INPUT CARD>H  1.0  0.00  -1.00  -1.00                                                      
 INPUT CARD> $END                                                                           
 INPUT CARD>!H  1.0  2.00  0.00  1.00                                                       
    1000000 WORDS OF MEMORY AVAILABLE

     BASIS OPTIONS
     -------------
     GBASIS=N311         IGAUSS=       6      POLAR=POPN311 
     NDFUNC=       1     NFFUNC=       0     DIFFSP=       T
     NPFUNC=       1      DIFFS=       T     BASNAM=        


     RUN TITLE
     ---------
 CH3OH                                                                           

 THE POINT GROUP OF THE MOLECULE IS C1      
 THE ORDER OF THE PRINCIPAL AXIS IS     0

 ATOM      ATOMIC                      COORDINATES (BOHR)
           CHARGE         X                   Y                   Z
 C           6.0     0.0000000000        0.0000000000        0.0000000000
 O           8.0     1.8897259877        0.0000000000        0.3779451975
 H           1.0    -1.8897259877        0.0000000000       -1.8897259877
 H           1.0     0.0000000000        1.8897259877        1.8897259877
 H           1.0     0.0000000000       -1.8897259877       -1.8897259877

          INTERNUCLEAR DISTANCES (ANGS.)
          ------------------------------

                1 C          2 O          3 H          4 H          5 H     

   1 C       0.0000000    1.0198039 *  1.4142136 *  1.4142136 *  1.4142136 *
   2 O       1.0198039 *  0.0000000    2.3323808 *  1.6248077 *  1.8547237 *
   3 H       1.4142136 *  2.3323808 *  0.0000000    2.4494897 *  1.4142136 *
   4 H       1.4142136 *  1.6248077 *  2.4494897 *  0.0000000    2.8284271 *
   5 H       1.4142136 *  1.8547237 *  1.4142136 *  2.8284271 *  0.0000000  

  * ... LESS THAN  3.000


     ATOMIC BASIS SET
     ----------------
 THE CONTRACTED PRIMITIVE FUNCTIONS HAVE BEEN UNNORMALIZED
 THE CONTRACTED BASIS FUNCTIONS ARE NOW NORMALIZED TO UNITY

  SHELL TYPE  PRIMITIVE        EXPONENT          CONTRACTION COEFFICIENT(S)

 C         

      1   S       1          4563.2400000    0.001966650249
      1   S       2           682.0240000    0.015230601932
      1   S       3           154.9730000    0.076126909656
      1   S       4            44.4553000    0.260801033080
      1   S       5            13.0290000    0.616462078191
      1   S       6             1.8277300    0.221006028032

      2   L       7            20.9642000    0.114660080729    0.040248692673
      2   L       8             4.8033100    0.919999647749    0.237593956746
      2   L       9             1.4593300   -0.003030682134    0.815853851473

      3   L      10             0.4834560    1.000000000000    1.000000000000

      4   L      11             0.1455850    1.000000000000    1.000000000000

      5   L      12             0.0438000    1.000000000000    1.000000000000

      6   D      13             0.6260000    1.000000000000

 O         

      7   S      14          8588.5000000    0.001895150083
      7   S      15          1297.2300000    0.014385900631
      7   S      16           299.2960000    0.070732003103
      7   S      17            87.3771000    0.240001010530
      7   S      18            25.6789000    0.594797026097
      7   S      19             3.7400400    0.280802012320

      8   L      20            42.1175000    0.113889012440    0.036511397380
      8   L      21             9.6283700    0.920811100576    0.237152982984
      8   L      22             2.8533200   -0.003274470358    0.819701941186

      9   L      23             0.9056610    1.000000000000    1.000000000000

     10   L      24             0.2556110    1.000000000000    1.000000000000

     11   L      25             0.0845000    1.000000000000    1.000000000000

     12   D      26             1.2920000    1.000000000000

 H         

     13   S      27            33.8650000    0.025493814541
     13   S      28             5.0947900    0.190373108582
     13   S      29             1.1587900    0.852161486043

     14   S      30             0.3258400    1.000000000000

     15   S      31             0.1027410    1.000000000000

     16   S      32             0.0360000    1.000000000000

     17   P      33             0.7500000    1.000000000000

 H         

     18   S      34            33.8650000    0.025493814541
     18   S      35             5.0947900    0.190373108582
     18   S      36             1.1587900    0.852161486043

     19   S      37             0.3258400    1.000000000000

     20   S      38             0.1027410    1.000000000000

     21   S      39             0.0360000    1.000000000000

     22   P      40             0.7500000    1.000000000000

 H         

     23   S      41            33.8650000    0.025493814541
     23   S      42             5.0947900    0.190373108582
     23   S      43             1.1587900    0.852161486043

     24   S      44             0.3258400    1.000000000000

     25   S      45             0.1027410    1.000000000000

     26   S      46             0.0360000    1.000000000000

     27   P      47             0.7500000    1.000000000000

 TOTAL NUMBER OF BASIS SET SHELLS             =   27
 NUMBER OF CARTESIAN GAUSSIAN BASIS FUNCTIONS =   67
 NUMBER OF ELECTRONS                          =   18
 CHARGE OF MOLECULE                           =   -1
 SPIN MULTIPLICITY                            =    1
 NUMBER OF OCCUPIED ORBITALS (ALPHA)          =    9
 NUMBER OF OCCUPIED ORBITALS (BETA )          =    9
 TOTAL NUMBER OF ATOMS                        =    5
 THE NUCLEAR REPULSION ENERGY IS       39.1229446530

     $CONTRL OPTIONS
     ---------------
 SCFTYP=UHF          RUNTYP=OPTIMIZE     EXETYP=RUN     
 MPLEVL=       0     CITYP =NONE         CCTYP =NONE         VBTYP =NONE    
 DFTTYP=NONE         TDDFT =NONE    
 MULT  =       1     ICHARG=      -1     NZVAR =       0     COORD =UNIQUE  
 PP    =NONE         RELWFN=NONE         LOCAL =NONE         NUMGRD=       F
 ISPHER=      -1     NOSYM =       0     MAXIT =     200     UNITS =ANGS    
 PLTORB=       F     MOLPLT=       F     AIMPAC=       F     FRIEND=        
 NPRINT=       7     IREST =       0     GEOM  =INPUT   
 NORMF =       0     NORMP =       0     ITOL  =      20     ICUT  =       9
 INTTYP=BEST         GRDTYP=BEST         QMTTOL= 1.0E-06

     $SYSTEM OPTIONS
     ---------------
  REPLICATED MEMORY=     1000000 WORDS (ON EVERY NODE).
 DISTRIBUTED MEMDDI=           0 MILLION WORDS IN AGGREGATE,
 MEMDDI DISTRIBUTED OVER   1 PROCESSORS IS           0 WORDS/PROCESSOR.
 TOTAL MEMORY REQUESTED ON EACH PROCESSOR=     1000000 WORDS.
 TIMLIM=      525600.00 MINUTES, OR     365.0 DAYS.
 PARALL= F  BALTYP=  DLB     KDIAG=    0  COREFL= F
 MXSEQ2=     300 MXSEQ3=     150  mem10=         0

          ----------------
          PROPERTIES INPUT
          ----------------

     MOMENTS            FIELD           POTENTIAL          DENSITY
 IEMOM =       1   IEFLD =       0   IEPOT =       0   IEDEN =       0
 WHERE =COMASS     WHERE =NUCLEI     WHERE =NUCLEI     WHERE =NUCLEI  
 OUTPUT=BOTH       OUTPUT=BOTH       OUTPUT=BOTH       OUTPUT=BOTH    
 IEMINT=       0   IEFINT=       0                     IEDINT=       0
                                                       MORB  =       0
          EXTRAPOLATION IN EFFECT
          SOSCF IN EFFECT
          DIIS or SOSCF will be reset if energy rises
 ORBITAL PRINTING OPTION: NPREO=     1    67     2     1

     -------------------------------
     INTEGRAL TRANSFORMATION OPTIONS
     -------------------------------
     NWORD  =            0
     CUTOFF = 1.0E-09     MPTRAN =       0
     DIRTRF =       F     AOINTS =DUP     

          ----------------------
          INTEGRAL INPUT OPTIONS
          ----------------------
 NOPK  =       1 NORDER=       0 SCHWRZ=       F

     ------------------------------------------
     THE POINT GROUP IS C1 , NAXIS= 0, ORDER= 1
     ------------------------------------------

     DIMENSIONS OF THE SYMMETRY SUBSPACES ARE
 A   =   67

 ..... DONE SETTING UP THE RUN .....
 STEP CPU TIME =     0.01 TOTAL CPU TIME =        0.0 (    0.0 MIN)
 TOTAL WALL CLOCK TIME=        0.0 SECONDS, CPU UTILIZATION IS 100.00%


          -----------------------------
          STATIONARY POINT LOCATION RUN
          -----------------------------

 OBTAINING INITIAL HESSIAN, HESS=GUESS   
 CARTESIAN COORDINATE OPTIMIZATION USING BADGER'S RULE FORCE CONSTANT GUESS

          PARAMETERS CONTROLLING GEOMETRY SEARCH ARE
          METHOD =QA                  UPHESS =BFGS    
          NNEG   =         0          NFRZ   =         0
          NSTEP  =        50          IFOLOW =         1
          HESS   =GUESS               RESTAR =         F
          IHREP  =         0          HSSEND =         F
          NPRT   =         0          NPUN   =         0
          OPTTOL = 1.000E-04          RMIN   = 1.500E-03
          RMAX   = 1.000E-01          RLIM   = 7.000E-02
          DXMAX  = 3.000E-01          PURIFY =         F
          MOVIE  =         F          TRUPD  =         T
          TRMAX  = 5.000E-01          TRMIN  = 5.000E-02
          ITBMAT =         5          STPT   =         F
          STSTEP = 1.000E-02          PROJCT=          T

 BEGINNING GEOMETRY SEARCH POINT NSERCH=   0 ...

 COORDINATES OF ALL ATOMS ARE (ANGS)
   ATOM   CHARGE       X              Y              Z
 ------------------------------------------------------------
 C           6.0   0.0000000000   0.0000000000   0.0000000000
 O           8.0   1.0000000000   0.0000000000   0.2000000000
 H           1.0  -1.0000000000   0.0000000000  -1.0000000000
 H           1.0   0.0000000000   1.0000000000   1.0000000000
 H           1.0   0.0000000000  -1.0000000000  -1.0000000000

          ********************
          1 ELECTRON INTEGRALS
          ********************
 ...... END OF ONE-ELECTRON INTEGRALS ......
 STEP CPU TIME =     0.01 TOTAL CPU TIME =        0.0 (    0.0 MIN)
 TOTAL WALL CLOCK TIME=        0.0 SECONDS, CPU UTILIZATION IS 200.00%

          -------------
          GUESS OPTIONS
          -------------
          GUESS =HUCKEL            NORB  =       0          NORDER=       0
          MIX   =       F          PRTMO =       F          PUNMO =       F
          TOLZ  = 1.0E-08          TOLE  = 1.0E-05
          SYMDEN=       F          PURIFY=       F

 INITIAL GUESS ORBITALS GENERATED BY HUCKEL   ROUTINE.
 HUCKEL GUESS REQUIRES     36975 WORDS.

 SYMMETRIES FOR INITIAL GUESS ORBITALS FOLLOW.  ALPHA SET(S).
     9 ORBITALS ARE OCCUPIED (    2 CORE ORBITALS).
     3=A        4=A        5=A        6=A        7=A        8=A        9=A   
    10=A       11=A       12=A       13=A       14=A       15=A       16=A   
    17=A       18=A       19=A   

 SYMMETRIES FOR INITIAL GUESS ORBITALS FOLLOW.   BETA SET(S).
     9 ORBITALS ARE OCCUPIED (    2 CORE ORBITALS).
     3=A        4=A        5=A        6=A        7=A        8=A        9=A   
    10=A       11=A       12=A       13=A       14=A       15=A       16=A   
    17=A       18=A       19=A   
 ...... END OF INITIAL ORBITAL SELECTION ......
 STEP CPU TIME =     0.00 TOTAL CPU TIME =        0.0 (    0.0 MIN)
 TOTAL WALL CLOCK TIME=        0.0 SECONDS, CPU UTILIZATION IS 100.00%

                    ----------------------
                    AO INTEGRAL TECHNOLOGY
                    ----------------------
     S,P,L SHELL ROTATED AXIS INTEGRALS, REPROGRAMMED BY
        KAZUYA ISHIMURA (IMS) AND JOSE SIERRA (SYNSTAR).
     S,P,D,L SHELL ROTATED AXIS INTEGRALS PROGRAMMED BY
        KAZUYA ISHIMURA (INSTITUTE FOR MOLECULAR SCIENCE).
     S,P,D,F,G SHELL TO TOTAL QUARTET ANGULAR MOMENTUM SUM 5,
        ERIC PROGRAM BY GRAHAM FLETCHER (ELORET AND NASA ADVANCED
        SUPERCOMPUTING DIVISION, AMES RESEARCH CENTER).
     S,P,D,F,G,L SHELL GENERAL RYS QUADRATURE PROGRAMMED BY
        MICHEL DUPUIS (PACIFIC NORTHWEST NATIONAL LABORATORY).

          --------------------
          2 ELECTRON INTEGRALS
          --------------------

 THE -PK- OPTION IS OFF, THE INTEGRALS ARE NOT IN SUPERMATRIX FORM.
 STORING   15000 INTEGRALS/RECORD ON DISK, USING 12 BYTES/INTEGRAL.
 TWO ELECTRON INTEGRAL EVALUATION REQUIRES   90774 WORDS OF MEMORY.
 II,JST,KST,LST =  1  1  1  1 NREC =         1 INTLOC =    1
 II,JST,KST,LST =  2  1  1  1 NREC =         1 INTLOC =    2
 II,JST,KST,LST =  3  1  1  1 NREC =         1 INTLOC =   34
 II,JST,KST,LST =  4  1  1  1 NREC =         1 INTLOC =  214
 II,JST,KST,LST =  5  1  1  1 NREC =         1 INTLOC =  776
 II,JST,KST,LST =  6  1  1  1 NREC =         1 INTLOC = 2074
 II,JST,KST,LST =  7  1  1  1 NREC =         1 INTLOC = 5929
 II,JST,KST,LST =  8  1  1  1 NREC =         1 INTLOC = 9865
 II,JST,KST,LST =  9  1  1  1 NREC =         2 INTLOC =14955
 II,JST,KST,LST = 10  1  1  1 NREC =         5 INTLOC =  206
 II,JST,KST,LST = 11  1  1  1 NREC =         7 INTLOC =13191
 II,JST,KST,LST = 12  1  1  1 NREC =        11 INTLOC =11604
 II,JST,KST,LST = 13  1  1  1 NREC =        19 INTLOC =11137
 II,JST,KST,LST = 14  1  1  1 NREC =        21 INTLOC = 8770
 II,JST,KST,LST = 15  1  1  1 NREC =        23 INTLOC = 9948
 II,JST,KST,LST = 16  1  1  1 NREC =        25 INTLOC =13368
 II,JST,KST,LST = 17  1  1  1 NREC =        28 INTLOC = 4119
 II,JST,KST,LST = 18  1  1  1 NREC =        35 INTLOC = 8956
 II,JST,KST,LST = 19  1  1  1 NREC =        40 INTLOC = 9036
 II,JST,KST,LST = 20  1  1  1 NREC =        45 INTLOC =13596
 II,JST,KST,LST = 21  1  1  1 NREC =        51 INTLOC = 7438
 II,JST,KST,LST = 22  1  1  1 NREC =        57 INTLOC = 5643
 II,JST,KST,LST = 23  1  1  1 NREC =        76 INTLOC =10084
 II,JST,KST,LST = 24  1  1  1 NREC =        83 INTLOC =10401
 II,JST,KST,LST = 25  1  1  1 NREC =        91 INTLOC = 2008
 II,JST,KST,LST = 26  1  1  1 NREC =        98 INTLOC =13969
 II,JST,KST,LST = 27  1  1  1 NREC =       107 INTLOC = 1340
 TOTAL NUMBER OF NONZERO TWO-ELECTRON INTEGRALS =             1984439
        133 INTEGRAL RECORDS WERE STORED ON DISK FILE  8.
  ...... END OF TWO-ELECTRON INTEGRALS .....
 STEP CPU TIME =     0.14 TOTAL CPU TIME =        0.2 (    0.0 MIN)
 TOTAL WALL CLOCK TIME=        0.2 SECONDS, CPU UTILIZATION IS 100.00%

          ---------------------------
                  UHF SCF CALCULATION
          ---------------------------

     NUCLEAR ENERGY =        39.1229446530
     MAXIT =200     NPUNCH=  2     MULT=  1
     EXTRAP=T  DAMP=F  SHIFT=F  RSTRCT=F  DIIS=F  SOSCF=T
     DENSITY MATRIX CONV=  1.00E-05
     SOSCF WILL OPTIMIZE     522 ALPHA AND     522 BETA ROTATION ANGLES.
     SOGTOL= 2.500E-01
     MEMORY REQUIRED FOR UHF/ROHF ITERS=     83270 WORDS.

 ITER EX      TOTAL ENERGY        E CHANGE  DENSITY CHANGE    ORB. GRAD 
   1  0     -113.2857079766  -113.2857079766   0.291709206   0.000000000
          ---------------START SECOND ORDER SCF---------------
   2  1     -114.0322096518    -0.7465016752   0.609793200   0.043370610
   3  2     -114.0716555369    -0.0394458851   0.054969184   0.021377176
   4  3     -114.0820132745    -0.0103577376   0.049337721   0.006554198
   5  4     -114.0833934593    -0.0013801848   0.058400266   0.003856493
   6  5     -114.0840609857    -0.0006675264   0.046180110   0.001867943
   7  6     -114.0841989253    -0.0001379395   0.029680815   0.001001626
   8  7     -114.0842513643    -0.0000524390   0.006938318   0.000369497
   9  8     -114.0842586049    -0.0000072406   0.002830063   0.000161161
  10  9     -114.0842600433    -0.0000014384   0.001273507   0.000065533
  11 10     -114.0842603129    -0.0000002696   0.000739261   0.000027675
  12 11     -114.0842603570    -0.0000000441   0.000103943   0.000009477
  13 12     -114.0842603619    -0.0000000049   0.000033620   0.000002709
  14 13     -114.0842603625    -0.0000000006   0.000018132   0.000000757
  15 14     -114.0842603625    -0.0000000000   0.000009221   0.000000297

          -----------------
          DENSITY CONVERGED
          -----------------
     TIME TO FORM FOCK OPERATORS=       0.6 SECONDS (       0.0 SEC/ITER)
     TIME TO SOLVE SCF EQUATIONS=       0.1 SECONDS (       0.0 SEC/ITER)

 FINAL UHF ENERGY IS     -114.0842603625 AFTER  15 ITERATIONS

          --------------------
          SPIN SZ   =    0.000
          S-SQUARED =   -0.000
          --------------------

  ----- ALPHA SET ----- 

          ------------
          EIGENVECTORS
          ------------

                      1          2          3          4          5
                  -20.3693   -11.1683    -1.3689    -0.5919    -0.5498
                     A          A          A          A          A   
    1  C  1  S    0.000031   0.563281  -0.073233   0.075314  -0.012875
    2  C  1  S   -0.000118   0.466138  -0.116739   0.125876  -0.021649
    3  C  1  X    0.000217   0.001038   0.122902  -0.007439   0.015643
    4  C  1  Y   -0.000001  -0.000621   0.000164   0.014908   0.092117
    5  C  1  Z    0.000040   0.000127   0.024441   0.035204   0.110742
    6  C  1  S    0.000408   0.003960   0.263397  -0.349762   0.057520
    7  C  1  X    0.000256  -0.001124   0.104541   0.013067   0.010105
    8  C  1  Y   -0.000015   0.000377  -0.000152   0.024666   0.147361
    9  C  1  Z    0.000036  -0.000142   0.021066   0.061929   0.172142
   10  C  1  S   -0.000161   0.002740   0.050893  -0.289621   0.023145
   11  C  1  X   -0.000050   0.000762  -0.006251   0.001260  -0.003260
   12  C  1  Y    0.000011  -0.000125   0.000889   0.001116   0.058744
   13  C  1  Z    0.000018   0.000180  -0.003663   0.019201   0.070053
   14  C  1  S   -0.000283   0.000911   0.034442  -0.003058  -0.039705
   15  C  1  X   -0.000186   0.000056   0.015415   0.015373   0.004540
   16  C  1  Y   -0.000029  -0.000031  -0.001864   0.000949   0.010714
   17  C  1  Z   -0.000146  -0.000107   0.003170   0.013775   0.022515
   18  C  1 XX    0.000130  -0.001252   0.007798  -0.001256  -0.009413
   19  C  1 YY   -0.000148  -0.001427  -0.025415   0.002872  -0.005437
   20  C  1 ZZ   -0.000151  -0.001429  -0.023244   0.000269   0.006760
   21  C  1 XY    0.000005  -0.000009   0.000656   0.003783   0.027501
   22  C  1 XZ    0.000045   0.000031   0.008512   0.000928   0.030014
   23  C  1 YZ   -0.000042  -0.000140  -0.001131  -0.006148   0.006068
   24  O  2  S    0.551274  -0.000657  -0.106023  -0.055963   0.019827
   25  O  2  S    0.471230  -0.000739  -0.175823  -0.095813   0.033835
   26  O  2  X   -0.001720  -0.000566  -0.089652   0.158522  -0.107556
   27  O  2  Y    0.000065   0.000037   0.001699   0.020282   0.130989
   28  O  2  Z   -0.000585  -0.000093  -0.015811   0.071156   0.129645
   29  O  2  S    0.007227   0.001592   0.484754   0.280124  -0.102053
   30  O  2  X    0.000411  -0.002248  -0.144572   0.238727  -0.161377
   31  O  2  Y   -0.000019   0.000052   0.003204   0.031721   0.202645
   32  O  2  Z    0.000227  -0.000463  -0.026576   0.109882   0.201333
   33  O  2  S   -0.000151   0.000443   0.319490   0.404478  -0.141859
   34  O  2  X   -0.000283  -0.000206  -0.036545   0.130322  -0.103631
   35  O  2  Y    0.000017  -0.000037   0.002753   0.025734   0.141262
   36  O  2  Z   -0.000136  -0.000069  -0.004337   0.072141   0.144263
   37  O  2  S    0.000651  -0.002278  -0.063956   0.078345  -0.011906
   38  O  2  X    0.000028   0.000769   0.009563  -0.011188  -0.006061
   39  O  2  Y   -0.000002   0.000038  -0.000238   0.004550  -0.003726
   40  O  2  Z    0.000068   0.000186   0.001591  -0.007372  -0.009912
   41  O  2 XX   -0.000415   0.001286   0.032360  -0.017199   0.014544
   42  O  2 YY   -0.000859  -0.000197  -0.012745   0.006119  -0.002776
   43  O  2 ZZ   -0.000806  -0.000136  -0.010751   0.002839  -0.010782
   44  O  2 XY   -0.000060  -0.000011  -0.000631  -0.002697  -0.017249
   45  O  2 XZ    0.000068   0.000364   0.010519  -0.012119  -0.014846
   46  O  2 YZ    0.000164  -0.000048  -0.000221   0.000631  -0.002177
   47  H  3  S   -0.000005   0.000087   0.004075  -0.063129  -0.024345
   48  H  3  S    0.000011   0.000114   0.001497  -0.108470  -0.047301
   49  H  3  S   -0.000023   0.000011  -0.005119  -0.015317   0.006682
   50  H  3  S   -0.000141  -0.000170   0.010309   0.013903   0.015039
   51  H  3  X    0.000008   0.000050   0.001180  -0.011582  -0.007963
   52  H  3  Y    0.000002   0.000022   0.000300   0.001812   0.004223
   53  H  3  Z   -0.000010   0.000067  -0.000526  -0.010397  -0.004335
   54  H  4  S   -0.000004   0.000081   0.013083  -0.016438   0.067253
   55  H  4  S   -0.000025   0.000078   0.012787  -0.023320   0.099927
   56  H  4  S   -0.000034   0.000152   0.003526  -0.012952   0.035674
   57  H  4  S    0.000136  -0.000071  -0.007043  -0.010462   0.005533
   58  H  4  X   -0.000013  -0.000049   0.000386   0.003275   0.004260
   59  H  4  Y   -0.000003  -0.000129  -0.003718   0.003970  -0.009634
   60  H  4  Z   -0.000009  -0.000121  -0.003701   0.004126  -0.008323
   61  H  5  S   -0.000003   0.000057   0.008436  -0.053458  -0.051277
   62  H  5  S    0.000002   0.000301   0.008817  -0.079448  -0.075976
   63  H  5  S   -0.000051  -0.000097   0.002385  -0.025474  -0.020080
   64  H  5  S    0.000061  -0.000047  -0.011605  -0.013284   0.000223
   65  H  5  X   -0.000021   0.000007  -0.000166   0.003574   0.001841
   66  H  5  Y    0.000012   0.000180   0.002651  -0.008861  -0.005995
   67  H  5  Z    0.000006   0.000201   0.002479  -0.006806  -0.004585

                      6          7          8          9         10
                   -0.4827    -0.4482    -0.1246    -0.0188     0.1792
                     A          A          A          A          A   
    1  C  1  S   -0.018448  -0.014961  -0.014828   0.015337  -0.018630
    2  C  1  S   -0.030065  -0.024603  -0.025643   0.026167  -0.030922
    3  C  1  X   -0.160751  -0.094455  -0.052246   0.014904  -0.041994
    4  C  1  Y    0.070062  -0.103442   0.030396  -0.040490  -0.001426
    5  C  1  Z   -0.058116   0.087997   0.034638   0.008533  -0.002523
    6  C  1  S    0.085183   0.073457   0.076524  -0.084935   0.091650
    7  C  1  X   -0.202363  -0.124799  -0.058135   0.044587  -0.087381
    8  C  1  Y    0.108063  -0.162636   0.061956  -0.070069   0.005414
    9  C  1  Z   -0.083642   0.138533   0.078900   0.021304   0.000970
   10  C  1  S    0.172429   0.130948   0.212695  -0.012052   0.370798
   11  C  1  X   -0.094237  -0.052657  -0.044058   0.112978   0.200138
   12  C  1  Y    0.052916  -0.071934   0.117992  -0.135305  -0.060794
   13  C  1  Z   -0.042212   0.070884   0.150078   0.043134   0.032522
   14  C  1  S   -0.007896  -0.018788   0.118736  -0.259828   3.560596
   15  C  1  X    0.005969   0.013112  -0.028581  -0.013145  -0.598779
   16  C  1  Y   -0.000024   0.008006   0.043357  -0.072113   0.355940
   17  C  1  Z   -0.001851   0.034680   0.039941  -0.010684  -0.314462
   18  C  1 XX    0.003463  -0.013540   0.006427  -0.029437   0.002178
   19  C  1 YY    0.017053   0.009727   0.010761   0.025227   0.009352
   20  C  1 ZZ    0.024090   0.027032  -0.005265   0.007074   0.005509
   21  C  1 XY    0.023772  -0.038310  -0.031892   0.013035   0.005672
   22  C  1 XZ    0.001087   0.041703  -0.043588  -0.024544  -0.002814
   23  C  1 YZ    0.013921  -0.002704  -0.001083   0.035887   0.005096
   24  O  2  S   -0.011315  -0.000951   0.008371   0.014371   0.001544
   25  O  2  S   -0.019686  -0.001790   0.014415   0.024791   0.002956
   26  O  2  X    0.158562   0.027476   0.049848   0.017783   0.020103
   27  O  2  Y    0.097744  -0.142084  -0.124573   0.056250   0.018089
   28  O  2  Z    0.020346   0.166410  -0.139635  -0.011995   0.000105
   29  O  2  S    0.055685   0.006165  -0.044173  -0.072988  -0.004459
   30  O  2  X    0.243679   0.042440   0.082084   0.028364   0.028198
   31  O  2  Y    0.151918  -0.223605  -0.195526   0.089356   0.028143
   32  O  2  Z    0.027651   0.258743  -0.216837  -0.016020   0.005707
   33  O  2  S    0.147039   0.020521  -0.099624  -0.162177  -0.082623
   34  O  2  X    0.142387   0.025209   0.089010   0.036368   0.042231
   35  O  2  Y    0.115860  -0.174146  -0.220314   0.110734   0.032249
   36  O  2  Z    0.015792   0.202855  -0.250116  -0.026593  -0.028785
   37  O  2  S    0.037764  -0.018483  -0.084299  -0.199903  -0.802180
   38  O  2  X    0.011343   0.006064   0.038371   0.027714   0.388538
   39  O  2  Y    0.001833  -0.013024  -0.102874   0.108348   0.031424
   40  O  2  Z    0.003447   0.005062  -0.116922  -0.015422   0.213663
   41  O  2 XX   -0.026363  -0.002212  -0.008047  -0.006808  -0.000270
   42  O  2 YY    0.010438   0.003512   0.002588   0.003856   0.002105
   43  O  2 ZZ    0.009406  -0.003750   0.004224   0.002561   0.001641
   44  O  2 XY   -0.013115   0.021626   0.005236  -0.000815  -0.000756
   45  O  2 XZ   -0.003934  -0.023789   0.002660  -0.002213  -0.000639
   46  O  2 YZ   -0.001894   0.004907   0.001562   0.004694  -0.000352
   47  H  3  S    0.088587   0.026856  -0.058849  -0.096493  -0.018268
   48  H  3  S    0.155253   0.039437  -0.108140  -0.211711  -0.085043
   49  H  3  S    0.041733   0.031683  -0.118516  -0.310934   0.108371
   50  H  3  S    0.022079   0.021268  -0.054812  -0.470785  -2.979606
   51  H  3  X    0.013454  -0.000994  -0.004212   0.001466   0.008560
   52  H  3  Y    0.001005  -0.003826   0.008573  -0.016536  -0.001817
   53  H  3  Z    0.013435   0.001923   0.006412  -0.011304   0.012909
   54  H  4  S    0.049333   0.018716   0.118895   0.076885  -0.000871
   55  H  4  S    0.078557   0.029364   0.226088   0.175852  -0.064467
   56  H  4  S    0.038812   0.015428   0.261300   0.266246   0.205939
   57  H  4  S    0.011054  -0.014335   0.105027   0.368142  -1.598465
   58  H  4  X   -0.000951  -0.003247  -0.012181   0.002436  -0.001568
   59  H  4  Y   -0.002969  -0.005591  -0.007868  -0.000463  -0.004938
   60  H  4  Z   -0.005506   0.002329  -0.009173   0.000387  -0.005565
   61  H  5  S    0.033975   0.026711  -0.081793   0.132225   0.011707
   62  H  5  S    0.050806   0.043387  -0.161169   0.295719  -0.009626
   63  H  5  S    0.017419   0.026131  -0.158623   0.443652   0.081351
   64  H  5  S   -0.005479   0.018163  -0.078328   0.630202   0.383560
   65  H  5  X   -0.004546  -0.003595   0.008571  -0.000803  -0.000489
   66  H  5  Y    0.005500   0.001769  -0.011135   0.005070   0.002062
   67  H  5  Z    0.001316   0.004516  -0.005102   0.007425   0.003890

                     11         12         13         14         15
                    0.1971     0.2418     0.2467     0.2643     0.3162
                     A          A          A          A          A   
    1  C  1  S    0.001193  -0.003612  -0.006028   0.008792  -0.012593
    2  C  1  S    0.001749  -0.004004  -0.011415   0.019213  -0.023176
    3  C  1  X    0.010959  -0.014460  -0.000952   0.003555  -0.034413
    4  C  1  Y   -0.019962  -0.014645   0.027779   0.004733  -0.021619
    5  C  1  Z   -0.026637   0.001970  -0.005992   0.004290   0.055689
    6  C  1  S   -0.005357   0.044491   0.034328   0.026505   0.035529
    7  C  1  X    0.012594  -0.019609  -0.007533   0.022286  -0.081754
    8  C  1  Y   -0.061383  -0.059105   0.041356   0.025760  -0.024377
    9  C  1  Z   -0.068214   0.024172  -0.004869   0.013859   0.081577
   10  C  1  S    0.000292  -0.446777   0.164533  -1.361708   0.764177
   11  C  1  X    0.032676  -0.171261   0.091973  -0.423733   0.104995
   12  C  1  Y    0.095073   0.067653   0.079187  -0.056304  -0.124693
   13  C  1  Z    0.057776  -0.064007   0.006201  -0.120460   0.187837
   14  C  1  S    0.380089  -1.353977  -1.980054  -4.050615   5.446146
   15  C  1  X   -0.580855  -0.642236  -0.765518  -2.577096  -1.392060
   16  C  1  Y   -2.301451  -1.206372   0.470539   0.562831  -0.811896
   17  C  1  Z   -3.014903   0.509098   0.708642  -1.625542  -2.701408
   18  C  1 XX   -0.000762   0.017286   0.024925   0.023702  -0.005665
   19  C  1 YY   -0.003902   0.013442  -0.022155   0.021785   0.000756
   20  C  1 ZZ   -0.000100   0.003392  -0.014399   0.021088  -0.021491
   21  C  1 XY    0.006163   0.019316   0.002242  -0.010681   0.009522
   22  C  1 XZ    0.011148  -0.017188   0.011504   0.005305  -0.015968
   23  C  1 YZ   -0.001048   0.006504  -0.021464   0.004125  -0.019636
   24  O  2  S   -0.000978  -0.004825  -0.004686  -0.010472   0.000898
   25  O  2  S   -0.001429  -0.007472  -0.007383  -0.016027   0.001484
   26  O  2  X   -0.009749   0.018879  -0.014017   0.012795   0.007007
   27  O  2  Y    0.011852   0.047109  -0.004171  -0.020604   0.042330
   28  O  2  Z    0.022129  -0.027213  -0.003541   0.010432  -0.004512
   29  O  2  S    0.007875   0.034084   0.031313   0.076051  -0.005421
   30  O  2  X   -0.014415   0.042425  -0.015391   0.044566   0.002448
   31  O  2  Y    0.022168   0.085326  -0.002437  -0.041277   0.064919
   32  O  2  Z    0.045331  -0.055193  -0.011266   0.029353  -0.002227
   33  O  2  S   -0.031787  -0.016114  -0.101646  -0.035822  -0.015923
   34  O  2  X   -0.023671  -0.037316   0.003622  -0.122234   0.018047
   35  O  2  Y   -0.002472   0.034243  -0.035187   0.005200   0.100504
   36  O  2  Z   -0.012468   0.008177   0.029760  -0.049587  -0.049892
   37  O  2  S    0.251358   1.427434   0.638471   4.084378  -1.164835
   38  O  2  X    0.028620  -0.100483  -0.120870  -0.562375   0.529391
   39  O  2  Y    0.151846   0.321629   0.044896  -0.246307   0.137771
   40  O  2  Z    0.377871  -0.394971  -0.190123   0.189459   0.404784
   41  O  2 XX    0.001576   0.001175   0.004086   0.004943   0.004712
   42  O  2 YY    0.000631   0.004350   0.001866   0.009961  -0.000562
   43  O  2 ZZ    0.001167   0.004294   0.002711   0.008933  -0.004271
   44  O  2 XY    0.002565  -0.000587  -0.002093  -0.000532   0.001337
   45  O  2 XZ    0.003099   0.000059   0.001577  -0.001963  -0.007116
   46  O  2 YZ    0.000655  -0.000033  -0.003045   0.002588  -0.004221
   47  H  3  S    0.017644  -0.027348   0.050048   0.004450  -0.073761
   48  H  3  S    0.063713  -0.018564  -0.030009   0.032172   0.113462
   49  H  3  S   -0.097047  -0.350835   1.002499  -0.276574  -1.711466
   50  H  3  S   -1.679142   1.643533  -3.082201  -3.127288  -2.408101
   51  H  3  X    0.007799  -0.004113   0.000443   0.002207  -0.006241
   52  H  3  Y   -0.003817  -0.007460   0.003042  -0.000707   0.001155
   53  H  3  Z    0.002418   0.004369   0.007678  -0.005629   0.006445
   54  H  4  S   -0.020575  -0.007075  -0.058070   0.024275  -0.070528
   55  H  4  S   -0.049199  -0.050555   0.004298   0.051347  -0.066382
   56  H  4  S   -0.053840   0.110913  -0.846114   0.173713  -0.722879
   57  H  4  S    4.631206   0.350742   1.137819   1.935091   1.084353
   58  H  4  X    0.002368  -0.004007  -0.003832  -0.006901  -0.004696
   59  H  4  Y    0.008765  -0.005354   0.001300  -0.001005  -0.000131
   60  H  4  Z    0.008885   0.004163   0.003213  -0.007564  -0.001822
   61  H  5  S    0.008897   0.016614  -0.071344   0.012020  -0.026191
   62  H  5  S    0.077717  -0.004586  -0.009448   0.060745   0.110687
   63  H  5  S   -0.253022   0.307603  -0.930730  -0.155874  -0.854750
   64  H  5  S   -3.353541  -1.608461   4.232705   2.843223  -1.407519
   65  H  5  X   -0.001530  -0.005472   0.000443  -0.002873  -0.000623
   66  H  5  Y    0.010487   0.000422  -0.010376   0.001937  -0.005302
   67  H  5  Z    0.007278   0.009648  -0.004465  -0.003637   0.000685

                     16         17         18         19         20
                    0.3241     0.3598     0.4097     0.4361     0.4791
                     A          A          A          A          A   
    1  C  1  S    0.046746   0.001416   0.006290  -0.011419   0.014696
    2  C  1  S    0.083840   0.000963   0.007517  -0.030653   0.030475
    3  C  1  X    0.113317  -0.013511   0.015010   0.004717  -0.006778
    4  C  1  Y    0.028351   0.057923  -0.130566   0.063035  -0.009428
    5  C  1  Z   -0.010986   0.053239   0.090728   0.028442   0.124562
    6  C  1  S   -0.231706  -0.018710  -0.106055  -0.155333   0.011923
    7  C  1  X    0.084214   0.002324  -0.018870  -0.036852   0.006650
    8  C  1  Y    0.050790   0.080643  -0.126482   0.057147  -0.069323
    9  C  1  Z   -0.005119   0.094223   0.094365  -0.000022   0.164882
   10  C  1  S    0.208796  -0.035275   0.498126   2.553890  -1.071024
   11  C  1  X    1.099463  -0.194815   0.116034   0.326975   0.011012
   12  C  1  Y    0.081448   0.246145  -0.840807   0.459947   0.138450
   13  C  1  Z    0.026374   0.142482   0.590222   0.344202   0.967624
   14  C  1  S    6.435406  -0.732614  -0.517978   0.164039  -1.319167
   15  C  1  X   -0.822524   0.090885  -0.062946  -0.746165   1.233117
   16  C  1  Y   -0.121942  -5.212541  -0.030810   1.149964   2.367053
   17  C  1  Z   -0.642716  -5.110367   0.230949   0.864702   2.350338
   18  C  1 XX    0.015546  -0.005469  -0.009963  -0.059254   0.037572
   19  C  1 YY   -0.002224  -0.005505  -0.031162  -0.061197   0.016273
   20  C  1 ZZ    0.000401  -0.002901  -0.027418  -0.063916   0.020839
   21  C  1 XY   -0.011322   0.006491   0.011047  -0.006741   0.006250
   22  C  1 XZ    0.005434   0.005889   0.001456   0.001909  -0.004995
   23  C  1 YZ    0.007914   0.003165   0.008467   0.022901  -0.000916
   24  O  2  S   -0.002609   0.000069  -0.001751   0.005302  -0.010800
   25  O  2  S   -0.003815  -0.000393  -0.002256   0.011023  -0.020767
   26  O  2  X   -0.030154   0.006516  -0.015453  -0.035010   0.028058
   27  O  2  Y   -0.042530  -0.024608   0.030980   0.007297   0.093592
   28  O  2  Z    0.005096  -0.027530  -0.067611   0.019412  -0.076696
   29  O  2  S    0.025524  -0.007708   0.013912  -0.010127   0.041647
   30  O  2  X   -0.056287   0.015919  -0.017744  -0.031870   0.021132
   31  O  2  Y   -0.065605  -0.031119   0.067974  -0.015822   0.095511
   32  O  2  Z    0.007725  -0.035312  -0.105685   0.011696  -0.109250
   33  O  2  S   -0.236843   0.051749  -0.033662  -0.305155   0.284444
   34  O  2  X    0.041942   0.000850  -0.096740  -0.208769   0.229861
   35  O  2  Y   -0.103688  -0.150838   0.024215   0.112870   0.480794
   36  O  2  Z    0.034511  -0.156714  -0.205014   0.111716  -0.284356
   37  O  2  S   -2.959505   0.387037  -0.769601  -2.216376  -0.253326
   38  O  2  X    1.079182  -0.050554   1.025424   2.659283  -0.985503
   39  O  2  Y   -0.099307   0.282754   0.956111  -0.961105  -1.369337
   40  O  2  Z    0.350920   0.315203  -0.296572  -0.216860  -0.607547
   41  O  2 XX    0.007705  -0.002290   0.016454   0.028444  -0.010886
   42  O  2 YY    0.000724  -0.001906  -0.002259  -0.001843  -0.005748
   43  O  2 ZZ    0.001737  -0.003003  -0.004078  -0.002688  -0.007466
   44  O  2 XY   -0.002097  -0.004966   0.017242  -0.011195  -0.010228
   45  O  2 XZ    0.003095  -0.003880  -0.003113   0.000153  -0.010077
   46  O  2 YZ    0.001387   0.001031   0.004614   0.000774  -0.003066
   47  H  3  S    0.061812   0.010264   0.051699  -0.016508   0.037507
   48  H  3  S    0.201077   0.027299   0.004349  -0.030805  -0.093662
   49  H  3  S    0.451889  -0.128546   1.272224  -0.055162   1.758785
   50  H  3  S   -2.487093   0.183284  -0.668399  -0.214699   0.522320
   51  H  3  X   -0.004435  -0.003697  -0.012162  -0.006278  -0.008307
   52  H  3  Y    0.002239  -0.001958  -0.009294  -0.000229  -0.005051
   53  H  3  Z   -0.001650  -0.006468   0.002156   0.002419   0.002095
   54  H  4  S    0.059710   0.052217   0.019164  -0.015387  -0.025577
   55  H  4  S    0.052297  -0.148422  -0.018897  -0.092692  -0.024630
   56  H  4  S    0.775772   1.746360   0.681315   0.385672  -0.848644
   57  H  4  S   -1.535023   5.391847  -0.273382  -0.765089  -1.450542
   58  H  4  X   -0.000043   0.001118   0.001743  -0.006633  -0.004289
   59  H  4  Y    0.004694  -0.009428   0.001373   0.012898  -0.006088
   60  H  4  Z    0.004480  -0.007738   0.005061   0.008685   0.005412
   61  H  5  S    0.012417  -0.038016  -0.025036   0.038990   0.024663
   62  H  5  S    0.025723   0.164826  -0.099559  -0.013966  -0.013319
   63  H  5  S   -0.053607  -1.574940  -0.065104   1.353169   0.875681
   64  H  5  S   -0.911758  -5.183199   0.745489   0.522555   1.682029
   65  H  5  X   -0.004837   0.005137  -0.003480   0.000268   0.000646
   66  H  5  Y   -0.003882  -0.008238  -0.004011  -0.005196   0.002798
   67  H  5  Z   -0.008373  -0.005491  -0.003353  -0.006295   0.006583

                     21         22         23         24         25
                    0.5019     0.5159     0.5841     0.6849     0.7305
                     A          A          A          A          A   
    1  C  1  S    0.010293  -0.001933   0.008869  -0.011384  -0.029173
    2  C  1  S    0.023070  -0.003530   0.024935  -0.025286  -0.048795
    3  C  1  X   -0.005287   0.010728   0.018909  -0.014971  -0.051252
    4  C  1  Y    0.033073  -0.115754  -0.011995  -0.036692   0.005662
    5  C  1  Z    0.046468  -0.090542   0.020841  -0.009197  -0.021217
    6  C  1  S    0.063044  -0.008873   0.097593   0.029398   0.124190
    7  C  1  X    0.040755   0.006642   0.037120   0.054757  -0.033851
    8  C  1  Y    0.057372  -0.172716  -0.042262  -0.110885  -0.004546
    9  C  1  Z   -0.012923  -0.130439   0.034703   0.001888  -0.006413
   10  C  1  S   -1.026839   0.330877  -4.540863   3.889801   1.257036
   11  C  1  X    0.087580   0.056227  -1.231675   2.516622   0.896369
   12  C  1  Y    0.276243  -0.926391   0.008369   0.031557   0.029969
   13  C  1  Z    0.650419  -0.810565  -0.140518   0.637168   0.038628
   14  C  1  S   -2.487528   0.369373  -6.497680   1.273391  -0.539041
   15  C  1  X    1.471103   0.015933  -1.630048  -0.408017   0.662026
   16  C  1  Y    0.749650  -0.973996   0.522770   0.416672  -0.465569
   17  C  1  Z    3.545877  -1.187237   0.014647   0.170587   0.429539
   18  C  1 XX    0.033407  -0.004363   0.034820  -0.001422   0.030402
   19  C  1 YY    0.024101  -0.004255   0.060596  -0.013443   0.016137
   20  C  1 ZZ    0.035243  -0.001322   0.064659  -0.015469  -0.002022
   21  C  1 XY   -0.007209   0.002510   0.000569  -0.002644   0.001809
   22  C  1 XZ    0.001922   0.000504  -0.005043  -0.003973  -0.003309
   23  C  1 YZ    0.000494   0.004789  -0.027057   0.026288  -0.026936
   24  O  2  S   -0.003779  -0.001279   0.032866   0.013308   0.002810
   25  O  2  S   -0.007408  -0.002955   0.063068   0.026745   0.006193
   26  O  2  X   -0.000030  -0.009072  -0.055236   0.056799   0.006032
   27  O  2  Y   -0.047576   0.088814   0.020626   0.005548   0.008301
   28  O  2  Z    0.081216   0.051179  -0.010444   0.009917   0.048852
   29  O  2  S    0.016753  -0.001606  -0.148221  -0.008272   0.013543
   30  O  2  X    0.004227  -0.017483   0.006644   0.100932   0.022827
   31  O  2  Y   -0.052673   0.091342   0.020274   0.006024   0.016927
   32  O  2  Z    0.059423   0.045313  -0.005383   0.020711   0.079031
   33  O  2  S    0.014804   0.141344  -0.711260  -1.819841  -0.737749
   34  O  2  X    0.076877  -0.046914  -0.738034   0.709457   0.290890
   35  O  2  Y   -0.245526   0.502414   0.121100   0.037520  -0.045746
   36  O  2  Z    0.538577   0.327462  -0.128632   0.122590   0.172354
   37  O  2  S    0.370659  -0.776968  10.025243  -3.194067  -2.018514
   38  O  2  X   -0.845908   0.333212  -1.996849   0.970884   0.578345
   39  O  2  Y    0.378910  -1.059425  -0.264510  -0.106177  -0.038885
   40  O  2  Z   -2.679282  -0.708868  -0.512463   0.167937  -0.326072
   41  O  2 XX   -0.006489  -0.003361   0.015590  -0.006952  -0.003071
   42  O  2 YY    0.000680  -0.002542   0.024045   0.024840   0.008625
   43  O  2 ZZ   -0.004731  -0.002632   0.023413   0.024889   0.011278
   44  O  2 XY    0.001864   0.001701  -0.000983   0.002225   0.005878
   45  O  2 XZ   -0.023893   0.002768  -0.004102  -0.006833   0.002585
   46  O  2 YZ    0.000871   0.002820  -0.003622   0.003443  -0.011860
   47  H  3  S    0.021748   0.011665   0.019364  -0.061193  -0.090376
   48  H  3  S    0.095386   0.130566  -0.112933  -0.588324  -1.152351
   49  H  3  S    1.090164  -0.264327   0.710132   2.510306   2.210289
   50  H  3  S    2.553023   0.085776  -0.859009  -2.291338   0.304055
   51  H  3  X    0.015576   0.003077   0.002583   0.022553   0.001404
   52  H  3  Y    0.003004  -0.004982   0.008290  -0.010284   0.030991
   53  H  3  Z    0.000724   0.002903  -0.009299  -0.011358   0.015502
   54  H  4  S   -0.001956   0.030338  -0.009641   0.041124  -0.075739
   55  H  4  S    0.016271  -0.146249   0.046267   0.534666  -1.232340
   56  H  4  S   -0.508940   2.771968  -1.064060  -1.386561   2.497296
   57  H  4  S   -1.366875   0.411250   1.294507   0.383762  -0.494346
   58  H  4  X   -0.001245   0.004936  -0.001643  -0.005632  -0.020381
   59  H  4  Y    0.000401   0.005170  -0.007080   0.003424   0.016676
   60  H  4  Z    0.000845   0.009092  -0.004239   0.001497   0.001972
   61  H  5  S    0.028604  -0.040259  -0.015158   0.032653  -0.001193
   62  H  5  S    0.103272   0.146733   0.021691   0.619644  -0.448866
   63  H  5  S    0.543237  -2.596238  -0.764543  -1.853595   0.459112
   64  H  5  S    0.650514  -0.502067   2.164490   1.831787  -0.488638
   65  H  5  X   -0.000153  -0.005718   0.010901  -0.005849   0.020066
   66  H  5  Y    0.013767   0.000347   0.006299   0.006981  -0.023452
   67  H  5  Z   -0.000120  -0.000819   0.009759   0.003800  -0.003984

                     26         27         28         29         30
                    0.8326     0.9172     0.9259     1.0017     1.0556
                     A          A          A          A          A   
    1  C  1  S    0.027477  -0.002806   0.002945   0.003873   0.065619
    2  C  1  S    0.045794  -0.006071   0.003215   0.006541   0.075487
    3  C  1  X    0.057203   0.023587   0.017331   0.025849   0.116803
    4  C  1  Y    0.060514   0.158383  -0.159530  -0.091675  -0.009803
    5  C  1  Z   -0.022643  -0.175655  -0.157747  -0.081638   0.025060
    6  C  1  S   -0.208432   0.012057  -0.104832   0.073298  -1.320497
    7  C  1  X    0.023384   0.150157  -0.008547   0.139818   0.874241
    8  C  1  Y    0.172803   0.688574  -0.519329  -0.532550  -0.019318
    9  C  1  Z   -0.096157  -0.733077  -0.458099  -0.557783   0.179339
   10  C  1  S   -5.744967   1.237951  -2.086923   0.624647   8.953604
   11  C  1  X   -4.047564   0.971261  -1.545515   0.798055   1.439024
   12  C  1  Y   -0.094949  -1.209475   0.673261   2.353477  -0.152773
   13  C  1  Z   -0.982127   1.726821   0.021643   3.060742  -0.110902
   14  C  1  S   -4.138758  -0.096586  -2.161157   0.314693   0.104495
   15  C  1  X    0.253809   0.240973   0.616241  -0.083591   0.444554
   16  C  1  Y   -0.880093   1.023337   1.480000  -1.856940  -0.306554
   17  C  1  Z   -0.704570   0.868656   2.173451  -1.899886  -0.132144
   18  C  1 XX   -0.071257  -0.001984  -0.035246   0.037266  -0.232752
   19  C  1 YY    0.015096  -0.013485   0.009289  -0.032075  -0.245222
   20  C  1 ZZ   -0.034837   0.014217  -0.032287   0.029975  -0.227731
   21  C  1 XY   -0.008111   0.017450  -0.007517  -0.021435   0.003039
   22  C  1 XZ   -0.026236  -0.016850  -0.019629  -0.005271   0.029205
   23  C  1 YZ    0.023484  -0.003419  -0.000705  -0.005482  -0.045916
   24  O  2  S   -0.014677   0.005607  -0.004867   0.001358   0.009500
   25  O  2  S   -0.032568   0.011483  -0.011671   0.002933   0.019972
   26  O  2  X   -0.032864   0.006507  -0.010575  -0.007109   0.020231
   27  O  2  Y   -0.026315  -0.027040   0.027021   0.012796   0.008073
   28  O  2  Z    0.020679   0.037473   0.053089  -0.014046   0.017776
   29  O  2  S   -0.037105  -0.000991  -0.027921   0.015651   0.047006
   30  O  2  X   -0.074429   0.011293  -0.028280   0.011050   0.071856
   31  O  2  Y   -0.024586  -0.064897   0.029252   0.042031   0.002313
   32  O  2  Z    0.049505   0.077633   0.076528   0.000812   0.017101
   33  O  2  S    3.027687  -0.837535   1.312288  -0.878301  -2.569711
   34  O  2  X   -1.089002   0.239695  -0.509654   0.223523   1.248146
   35  O  2  Y   -0.175815   0.013365   0.209004  -0.329591   0.080269
   36  O  2  Z   -0.214945   0.090395   0.192161  -0.384228   0.351952
   37  O  2  S    6.739314  -1.409853   1.954105  -0.549037  -5.231316
   38  O  2  X   -2.161788   0.451618  -0.700696   0.226621   1.834978
   39  O  2  Y    0.210475   0.239205  -0.293425   0.109873  -0.007247
   40  O  2  Z   -0.308376  -0.683741  -0.600435  -0.038283   0.407873
   41  O  2 XX   -0.003201  -0.004942  -0.010524  -0.004488  -0.012303
   42  O  2 YY   -0.042795   0.008980  -0.016210   0.001675   0.028962
   43  O  2 ZZ   -0.040595   0.017113  -0.012981   0.010851   0.028795
   44  O  2 XY   -0.007724  -0.015736   0.012756   0.022090   0.006947
   45  O  2 XZ    0.018454   0.009582   0.017609   0.009618  -0.001599
   46  O  2 YZ    0.008324  -0.005786   0.008769  -0.005199  -0.018875
   47  H  3  S   -0.025334  -0.029238  -0.020187  -0.005601   0.039740
   48  H  3  S   -0.992098   0.067272  -0.761825   0.945986  -0.067833
   49  H  3  S    0.522574   1.222564   0.737989  -0.280818  -0.740453
   50  H  3  S    0.325292  -0.287819   0.978811  -0.031352   0.786207
   51  H  3  X   -0.043431   0.040478  -0.015339   0.066381  -0.048167
   52  H  3  Y   -0.020172  -0.001780   0.010470  -0.002109   0.048057
   53  H  3  Z    0.001841   0.021787   0.025799   0.029585  -0.115806
   54  H  4  S   -0.013550   0.010306   0.070853   0.002890   0.011989
   55  H  4  S    0.339879  -0.014836   0.974285  -1.223594  -0.457527
   56  H  4  S   -0.440163  -0.196152  -2.228975   0.001455   0.695925
   57  H  4  S    1.631248  -0.700999  -0.689907   1.969472   0.238008
   58  H  4  X   -0.006267   0.002439   0.009484  -0.030799  -0.029036
   59  H  4  Y   -0.010206   0.001058   0.044649   0.039485   0.056821
   60  H  4  Z   -0.043993   0.015813   0.025426   0.080948   0.043114
   61  H  5  S    0.060758  -0.008232  -0.077630  -0.003829   0.012315
   62  H  5  S    1.088918  -0.232462  -1.035918   1.264710  -0.653953
   63  H  5  S   -2.272387   0.389686   2.434985   0.054881   0.386305
   64  H  5  S    0.463891   0.950833   0.786068  -2.038445  -0.439342
   65  H  5  X    0.038079  -0.008813   0.031136   0.003179  -0.004747
   66  H  5  Y   -0.002483   0.016685   0.015187   0.090135  -0.074896
   67  H  5  Z    0.030027  -0.016508   0.051312   0.039380  -0.066882

                     31         32         33         34         35
                    1.2523     1.4451     1.4505     1.4866     1.5590
                     A          A          A          A          A   
    1  C  1  S   -0.055126   0.016302   0.005185  -0.001817   0.037656
    2  C  1  S   -0.067094   0.022619   0.007530  -0.001513   0.060193
    3  C  1  X    0.119991  -0.038679  -0.018196  -0.007562  -0.109309
    4  C  1  Y   -0.008418  -0.006087   0.040131  -0.011315  -0.003586
    5  C  1  Z    0.006375   0.014972   0.010696   0.018382  -0.025485
    6  C  1  S    1.780989  -0.339430  -0.123538   0.080268  -0.442565
    7  C  1  X    1.127909  -0.182369  -0.022700   0.103852  -0.193967
    8  C  1  Y   -0.012436   0.024676  -0.107851   0.043613   0.008938
    9  C  1  Z    0.179324   0.046023  -0.045763  -0.104438  -0.021312
   10  C  1  S    0.176785  -0.783705   0.642064   0.253286   3.566873
   11  C  1  X    0.358068  -0.804029   0.216094   0.066293   1.878995
   12  C  1  Y   -0.079158  -0.135171  -0.327557   0.052317   0.535630
   13  C  1  Z    0.135137  -0.650248  -0.127431  -0.412565   0.938494
   14  C  1  S   -0.829532  -0.697787  -0.538416  -0.917257   0.780752
   15  C  1  X    0.522148  -0.275186   0.104936   0.361022  -0.053129
   16  C  1  Y    0.252036  -0.054337   0.778188   0.056863  -0.101996
   17  C  1  Z    0.635359  -0.141506   0.654152   1.268710  -0.121753
   18  C  1 XX    0.340891  -0.029050   0.000593   0.109747   0.160286
   19  C  1 YY    0.187145  -0.573409  -0.018598   0.081807  -0.075119
   20  C  1 ZZ    0.286390   0.426549  -0.049714  -0.159876  -0.285795
   21  C  1 XY    0.010767   0.038658  -0.034779   0.110680   0.331820
   22  C  1 XZ    0.029221  -0.149424  -0.007898  -0.161487   0.278535
   23  C  1 YZ    0.005382   0.011448  -0.073452  -0.027080   0.000182
   24  O  2  S    0.019680  -0.017979  -0.003221  -0.005592  -0.026144
   25  O  2  S    0.036871  -0.027923  -0.004388  -0.007679  -0.039462
   26  O  2  X   -0.029622  -0.013017  -0.009274   0.027082  -0.148957
   27  O  2  Y    0.002015   0.021862  -0.206191   0.084076   0.041143
   28  O  2  Z    0.005589  -0.022587  -0.075493  -0.199243   0.004560
   29  O  2  S    0.001351   0.167633   0.047875   0.082075   0.321705
   30  O  2  X   -0.062899  -0.016017  -0.015742   0.131166  -0.313509
   31  O  2  Y    0.004031   0.066642  -0.762346   0.315427   0.137371
   32  O  2  Z    0.026883  -0.065742  -0.268552  -0.747267   0.066921
   33  O  2  S   -2.499078   0.515100  -0.262145  -0.363087  -1.979749
   34  O  2  X    2.726329  -0.593196   0.003493  -0.109046   0.914014
   35  O  2  Y    0.010815  -0.138251   1.662786  -0.729860  -0.704117
   36  O  2  Z    0.499688   0.089425   0.639047   1.913752  -0.362236
   37  O  2  S    0.498374   1.476616  -0.268107   0.021851  -2.339570
   38  O  2  X   -1.286493  -0.107774   0.140973   0.036944   0.627088
   39  O  2  Y    0.006460   0.086206  -1.137434   0.374294   0.239297
   40  O  2  Z   -0.411391   0.056178  -0.546598  -1.345005   0.316154
   41  O  2 XX    0.014379   0.020898   0.003759   0.001526  -0.003925
   42  O  2 YY    0.001318  -0.028017   0.010658   0.018816   0.078520
   43  O  2 ZZ    0.008259   0.068895   0.007432   0.013012   0.038387
   44  O  2 XY   -0.001095  -0.000365   0.015263  -0.011011  -0.011355
   45  O  2 XZ   -0.001020  -0.015782  -0.001020   0.023611  -0.027075
   46  O  2 YZ    0.000875  -0.002052  -0.010477  -0.008010  -0.036155
   47  H  3  S   -0.007875  -0.007895  -0.024193  -0.030805   0.011098
   48  H  3  S   -0.080935  -0.434249  -0.204289  -0.153241  -0.094900
   49  H  3  S    0.317432  -0.053036   0.399949   0.286423   0.592087
   50  H  3  S    0.542773  -0.164603   0.127991   0.911303  -0.487533
   51  H  3  X    0.077740   0.236916   0.068497   0.002628   0.156168
   52  H  3  Y   -0.029356  -0.060056  -0.150918   0.028084  -0.354585
   53  H  3  Z   -0.075791  -0.098994  -0.007485   0.003429   0.050047
   54  H  4  S    0.002838  -0.000818   0.015998   0.003676  -0.022219
   55  H  4  S    0.297287   0.177605  -0.201491  -0.002329  -0.082874
   56  H  4  S   -0.491134  -0.099859   0.375383   0.121635  -0.358242
   57  H  4  S   -0.128765   0.222858  -0.431044  -0.466232   0.137080
   58  H  4  X   -0.056404  -0.071653   0.105814   0.035381  -0.024858
   59  H  4  Y   -0.052900  -0.241249   0.035068   0.023248   0.204126
   60  H  4  Z   -0.020794   0.263398  -0.009785   0.009815  -0.040703
   61  H  5  S   -0.004105  -0.002543   0.002735  -0.004482  -0.008794
   62  H  5  S   -0.101925  -0.151760  -0.042258  -0.071679   0.061950
   63  H  5  S    0.031751  -0.124701  -0.212257   0.077278   0.045847
   64  H  5  S    0.248111   0.179728   0.620390   0.184940   0.068609
   65  H  5  X   -0.063556  -0.005577  -0.224532  -0.063002  -0.381963
   66  H  5  Y    0.061911   0.259515  -0.018402  -0.094220   0.029790
   67  H  5  Z   -0.012585  -0.272080  -0.105217  -0.000005  -0.043084

                     36         37         38         39         40
                    1.5750     1.7118     1.8023     1.8440     1.8863
                     A          A          A          A          A   
    1  C  1  S    0.022698  -0.025521   0.012411  -0.032486   0.006122
    2  C  1  S    0.043109  -0.032552   0.022386  -0.050929   0.012443
    3  C  1  X   -0.123934   0.017344  -0.086623   0.034154   0.030726
    4  C  1  Y    0.012282  -0.002423   0.003083   0.006019   0.040007
    5  C  1  Z   -0.028824   0.003404  -0.029193  -0.013779  -0.043433
    6  C  1  S   -0.099988   0.627881  -0.137932   0.329033   0.015224
    7  C  1  X   -0.059693   0.240152  -0.104112   0.055420   0.222730
    8  C  1  Y    0.034952   0.028670   0.036057  -0.013948  -0.075056
    9  C  1  Z    0.011712   0.048999  -0.074368   0.019446   0.130812
   10  C  1  S    4.067949  -2.224135   1.915546  -0.595515   2.351450
   11  C  1  X    2.026659  -0.436869   1.174893  -0.196240   1.433261
   12  C  1  Y   -0.472424  -0.158234  -0.492114   0.318345   0.244858
   13  C  1  Z    0.305760   0.122281  -0.064336  -0.120461  -0.197316
   14  C  1  S    1.478418  -2.432935   0.261011   0.701761   0.292697
   15  C  1  X    0.177912  -1.026392  -0.215789  -0.041297  -0.213600
   16  C  1  Y    0.268914   0.149768   0.247255  -0.179103   0.010316
   17  C  1  Z    0.236647  -0.365386   0.117020  -0.291541   0.017471
   18  C  1 XX    0.386674   0.026965   0.335401   0.159020   0.218623
   19  C  1 YY   -0.241709   0.200332  -0.085477  -0.068116  -0.092817
   20  C  1 ZZ   -0.151312   0.075943  -0.288038   0.080475  -0.048861
   21  C  1 XY   -0.235766  -0.061676  -0.254063   0.408775   0.057742
   22  C  1 XZ    0.106904   0.117950  -0.416534  -0.348173   0.000424
   23  C  1 YZ   -0.148651  -0.288306   0.225527  -0.375283   0.182100
   24  O  2  S   -0.015616  -0.065978  -0.027753   0.021582  -0.020277
   25  O  2  S   -0.026951  -0.088309  -0.042042   0.029119  -0.027398
   26  O  2  X   -0.173360   0.100957  -0.072991   0.029618   0.004686
   27  O  2  Y   -0.003970   0.011591  -0.002454  -0.010587  -0.024162
   28  O  2  Z   -0.025177   0.033272   0.021389   0.063565   0.015024
   29  O  2  S    0.159831   0.991518   0.372956  -0.314767   0.344071
   30  O  2  X   -0.365232   0.463011  -0.094145   0.089373   0.160367
   31  O  2  Y   -0.020879   0.005276  -0.067697  -0.073650  -0.099182
   32  O  2  Z   -0.051053   0.104036   0.063127   0.201882   0.028894
   33  O  2  S   -1.874734  -2.358091  -1.611568   0.732467  -2.290391
   34  O  2  X    1.477031  -0.626658   0.281104  -0.097814   0.452418
   35  O  2  Y    0.385643   0.169747   0.482819  -0.226318   0.098035
   36  O  2  Z    0.291644  -0.310573   0.527137  -0.060314   0.293590
   37  O  2  S   -3.635135   5.000780  -0.750085  -0.106000  -0.919100
   38  O  2  X    0.698705  -0.569979   0.369158  -0.108741   0.448916
   39  O  2  Y   -0.080173  -0.039844  -0.147749   0.036368  -0.096858
   40  O  2  Z    0.089816   0.008823  -0.062334   0.149974   0.082590
   41  O  2 XX   -0.038021   0.165290  -0.007429  -0.038413   0.024675
   42  O  2 YY    0.023091   0.146318   0.065672  -0.077416   0.025157
   43  O  2 ZZ    0.035845   0.124670   0.066728  -0.030126   0.083938
   44  O  2 XY    0.014945   0.025482   0.038739  -0.004616   0.002999
   45  O  2 XZ   -0.014397   0.006883   0.048419   0.035204   0.012408
   46  O  2 YZ   -0.002124  -0.053357  -0.000011  -0.067695  -0.013096
   47  H  3  S    0.008939  -0.012106  -0.026796  -0.051841   0.019415
   48  H  3  S   -0.085266   0.089196   0.262421   0.331856   0.024580
   49  H  3  S    0.572320   0.130412  -0.089860  -0.537591   0.057979
   50  H  3  S   -0.411429  -0.719240  -0.205804  -0.074552  -0.194181
   51  H  3  X   -0.036770   0.165711  -0.132840  -0.439961  -0.307407
   52  H  3  Y    0.404202   0.174913  -0.198359  -0.239114  -0.209538
   53  H  3  Z    0.150182  -0.148397  -0.240058   0.115034   0.255704
   54  H  4  S   -0.012565   0.004096  -0.018807  -0.043601   0.021103
   55  H  4  S    0.306075   0.311230  -0.046519   0.314838  -0.230478
   56  H  4  S   -0.192569  -0.687696   0.115740  -0.424160   0.222234
   57  H  4  S   -0.301119   0.696445  -0.190657   0.167575  -0.083653
   58  H  4  X    0.013779  -0.220240  -0.462054   0.017119  -0.342336
   59  H  4  Y    0.040067   0.200960   0.172131   0.218124  -0.470807
   60  H  4  Z    0.221432   0.079274  -0.260943   0.202338   0.378121
   61  H  5  S    0.012139   0.019964  -0.020034  -0.032752   0.019127
   62  H  5  S    0.139969   0.252321  -0.271075   0.451314  -0.247948
   63  H  5  S   -0.378380  -0.518022  -0.085169  -0.374923   0.112359
   64  H  5  S    0.308286   0.892874   0.289168  -0.191958   0.039796
   65  H  5  X    0.215917  -0.122876   0.168403   0.073573  -0.211631
   66  H  5  Y   -0.224619  -0.126459   0.162258  -0.084013  -0.315607
   67  H  5  Z   -0.067176  -0.062336  -0.094368  -0.249329   0.393722

                     41         42         43         44         45
                    1.9922     2.0242     2.1921     2.2720     2.3495
                     A          A          A          A          A   
    1  C  1  S   -0.002912  -0.000868  -0.008010  -0.009599  -0.008377
    2  C  1  S   -0.009208  -0.003205  -0.020041  -0.024931  -0.020032
    3  C  1  X   -0.062588   0.108797  -0.032852   0.017937  -0.017877
    4  C  1  Y   -0.001216  -0.007066   0.048493   0.129913  -0.251348
    5  C  1  Z   -0.023120   0.064305   0.015039   0.105414  -0.278957
    6  C  1  S   -0.439793  -0.056073   0.148072   0.149011   0.165106
    7  C  1  X   -0.899818   0.097180   0.215301   0.200653   0.218476
    8  C  1  Y    0.010786   0.060593  -0.009473  -0.004537   0.045197
    9  C  1  Z   -0.142499   0.093360   0.055673   0.059430   0.086879
   10  C  1  S   -4.891356  -0.219155   1.167943   1.243044   1.904486
   11  C  1  X   -2.463111   0.182610   0.127971   0.407053   0.677301
   12  C  1  Y   -0.096387  -0.413833   0.258246   0.461583  -0.554966
   13  C  1  Z   -0.832097  -0.200176   0.154965   0.443679  -0.525204
   14  C  1  S   -0.212860   0.180716   0.212167  -0.016244   0.454447
   15  C  1  X    0.221401   0.112569  -0.113166   0.058327  -0.216158
   16  C  1  Y   -0.049820   0.253709  -0.046396   0.315014  -0.347641
   17  C  1  Z   -0.002926   0.284859  -0.199580   0.382346  -0.585869
   18  C  1 XX   -0.558932  -0.096173   0.085629   0.149325   0.136098
   19  C  1 YY    0.221325   0.030940   0.470636  -0.418030  -0.164221
   20  C  1 ZZ    0.030579   0.084219  -0.585401   0.210154   0.016035
   21  C  1 XY   -0.249531  -0.516202  -0.270026  -0.510350  -0.376095
   22  C  1 XZ   -0.200669   0.296508   0.123177  -0.177839  -0.035658
   23  C  1 YZ   -0.310246  -0.177079  -0.052797  -0.026115  -0.002682
   24  O  2  S    0.043814   0.021284  -0.009462  -0.003854  -0.010653
   25  O  2  S    0.057783   0.029293  -0.013301  -0.004661  -0.011131
   26  O  2  X   -0.044041   0.051001   0.000993   0.017169   0.000458
   27  O  2  Y    0.036898   0.056938   0.023947   0.049314   0.073548
   28  O  2  Z    0.013157  -0.042817   0.011035   0.012414   0.046308
   29  O  2  S   -0.762791  -0.318523   0.159329   0.095541   0.234886
   30  O  2  X   -0.455981   0.178687   0.061954   0.097975   0.043869
   31  O  2  Y    0.106297   0.157348   0.114011   0.201713   0.274839
   32  O  2  Z   -0.062001  -0.192017   0.078127   0.067453   0.178566
   33  O  2  S    5.286768   0.502545  -0.933534  -0.982057  -1.579278
   34  O  2  X   -1.531585  -0.231358   0.397892   0.357334   0.576856
   35  O  2  Y    0.084808   0.291429  -0.071735  -0.093698  -0.268078
   36  O  2  Z   -0.245758   0.204846  -0.105433   0.031778  -0.186687
   37  O  2  S    1.927034  -0.359092  -0.282985  -0.524012  -0.684319
   38  O  2  X   -0.821194   0.025424   0.124653   0.135863   0.270480
   39  O  2  Y    0.001072  -0.094729  -0.006890  -0.088578   0.088139
   40  O  2  Z   -0.098584  -0.107085   0.148917  -0.073903   0.290962
   41  O  2 XX   -0.089353  -0.017867   0.018543   0.029376   0.012223
   42  O  2 YY   -0.105238  -0.057700   0.094604  -0.049955   0.034685
   43  O  2 ZZ   -0.107766  -0.065921  -0.056341   0.054671   0.071391
   44  O  2 XY    0.048400   0.084972   0.009439   0.028204   0.028194
   45  O  2 XZ    0.022252  -0.005336  -0.005495  -0.012049  -0.011255
   46  O  2 YZ   -0.061402  -0.041728   0.043806   0.043390   0.091355
   47  H  3  S   -0.088502   0.083737  -0.127435  -0.034940  -0.098479
   48  H  3  S    0.030356  -0.278489   0.197952   0.041260   0.071710
   49  H  3  S   -0.583343   0.549278  -0.444591   0.082592  -0.328420
   50  H  3  S    0.390953  -0.137135  -0.045761   0.048823  -0.275707
   51  H  3  X    0.180856  -0.073434  -0.047532   0.000207  -0.237284
   52  H  3  Y    0.020045  -0.296815  -0.265174  -0.329302  -0.088118
   53  H  3  Z   -0.405188   0.593597  -0.204166  -0.077118  -0.081915
   54  H  4  S   -0.042656   0.023688  -0.104581  -0.206965   0.162554
   55  H  4  S    0.432122   0.072532   0.097569   0.167330  -0.079446
   56  H  4  S   -0.263250   0.038885  -0.322572  -0.700100   0.840158
   57  H  4  S    0.026148  -0.262664   0.169912  -0.099654   0.111012
   58  H  4  X   -0.392106  -0.362851   0.331414   0.483779   0.356519
   59  H  4  Y   -0.068987   0.144015  -0.286958   0.450464  -0.395114
   60  H  4  Z    0.183661  -0.059544   0.555146   0.158673  -0.405226
   61  H  5  S   -0.061676  -0.032825  -0.018834   0.014672  -0.226824
   62  H  5  S    0.314917  -0.061940   0.012757  -0.016360   0.105704
   63  H  5  S   -0.277702  -0.139158   0.104535   0.435911  -1.007763
   64  H  5  S   -0.134751   0.274816  -0.107340   0.199750  -0.004476
   65  H  5  X   -0.328249   0.003839   0.153734  -0.148252  -0.346503
   66  H  5  Y   -0.179837   0.166777   0.354168  -0.081742  -0.442732
   67  H  5  Z    0.097379  -0.217905  -0.209181   0.522706  -0.483382

                     46         47         48         49         50
                    2.4231     2.5109     2.8262     3.0011     3.1220
                     A          A          A          A          A   
    1  C  1  S   -0.006420  -0.004801  -0.069435   0.033012   0.046993
    2  C  1  S   -0.015290  -0.004989  -0.223722   0.085595   0.127325
    3  C  1  X   -0.027447   0.389718   0.076845  -0.331138   0.237439
    4  C  1  Y   -0.047566  -0.027662   0.049009  -0.048839  -0.174397
    5  C  1  Z   -0.064594   0.168890  -0.053837   0.108854   0.038087
    6  C  1  S    0.163905   0.005956   0.234501  -0.033376  -0.264385
    7  C  1  X    0.093368  -0.027057   0.189674  -0.090116  -0.240673
    8  C  1  Y   -0.037255   0.031298  -0.069722  -0.025182   0.118609
    9  C  1  Z   -0.004775   0.011102   0.026728  -0.271743   0.019839
   10  C  1  S   -1.242952  -0.662071   3.112159  -1.360016  -1.827649
   11  C  1  X   -0.882131   0.536856   0.461072  -0.432530   0.051736
   12  C  1  Y    0.046830   0.003934  -0.121997  -0.148831  -0.075741
   13  C  1  Z   -0.320964   0.492855  -0.167785  -0.020947   0.196888
   14  C  1  S   -0.801095   0.358184   0.169408  -0.936044   0.926591
   15  C  1  X    0.022202  -0.160926  -0.114559   0.037159  -0.373621
   16  C  1  Y   -0.283164   0.031456   0.056167   0.453509   0.006370
   17  C  1  Z   -0.246389  -0.050223  -0.087818   0.507722  -0.390697
   18  C  1 XX    0.025774   0.536985  -0.127860  -0.743790   0.252100
   19  C  1 YY   -0.066471   0.070399  -0.691075   0.564708   0.173466
   20  C  1 ZZ    0.068498  -0.498206  -0.472332   0.417480   0.078076
   21  C  1 XY    0.105214  -0.003922   0.061413  -0.018464   0.070065
   22  C  1 XZ    0.258107  -0.491441   0.493108  -0.433708  -0.226762
   23  C  1 YZ   -0.179795   0.117732   0.631310  -0.072344  -0.535111
   24  O  2  S    0.001654   0.030874   0.029286  -0.031646  -0.003856
   25  O  2  S   -0.000254   0.050323   0.046972  -0.041123  -0.002251
   26  O  2  X    0.004550   0.107263   0.098482  -0.079164   0.013971
   27  O  2  Y   -0.011771   0.004175  -0.024772  -0.010868  -0.025180
   28  O  2  Z   -0.030477   0.104026  -0.023846  -0.011364   0.004591
   29  O  2  S   -0.101882  -0.498744  -0.516042   0.805150   0.098971
   30  O  2  X    0.076087   0.314344   0.385984  -0.604797  -0.083383
   31  O  2  Y   -0.036454   0.001741  -0.090882   0.017359   0.002413
   32  O  2  Z   -0.092306   0.334903  -0.078803  -0.055718   0.072652
   33  O  2  S    0.646537   0.320962  -0.186612  -0.295793   0.215185
   34  O  2  X   -0.123831  -0.475520  -0.270722   0.460696  -0.066226
   35  O  2  Y   -0.003234  -0.041920   0.143924  -0.017242  -0.055160
   36  O  2  Z    0.023484  -0.223477   0.078027   0.090596  -0.211993
   37  O  2  S    1.306678  -0.125588  -1.303218   1.514234   0.746152
   38  O  2  X   -0.443441   0.148111   0.636225  -0.665959  -0.270980
   39  O  2  Y    0.016924   0.001107  -0.028769   0.002657   0.102392
   40  O  2  Z   -0.034401  -0.055138   0.211147  -0.225481   0.145143
   41  O  2 XX   -0.019540  -0.003348   0.017039  -0.037806   0.076089
   42  O  2 YY   -0.018401  -0.035653  -0.099565   0.203656   0.052212
   43  O  2 ZZ   -0.020850  -0.099964  -0.075304   0.174402  -0.052969
   44  O  2 XY    0.012713  -0.008753  -0.046460  -0.084952  -0.073106
   45  O  2 XZ   -0.012573   0.153915  -0.070722   0.013354  -0.013711
   46  O  2 YZ    0.012898   0.024772   0.118409   0.233022   0.123037
   47  H  3  S    0.347950   0.364981  -0.144554   0.589358  -1.192306
   48  H  3  S   -0.608409  -0.058130  -0.135831  -0.690648   1.978294
   49  H  3  S    0.548695   0.830967  -0.215971   0.794313  -1.064922
   50  H  3  S   -0.205720  -0.601145  -0.203099  -0.237032  -0.308164
   51  H  3  X    0.343808   0.663219  -0.217865   0.026040   0.240843
   52  H  3  Y   -0.567966   0.110739   0.128102   0.048224  -0.026478
   53  H  3  Z   -0.265566   0.359785  -0.265895   0.337749   0.222939
   54  H  4  S    0.017613  -0.021118  -0.694671  -0.866519  -0.658238
   55  H  4  S    0.106682  -0.020801   0.533034   1.398315   1.293073
   56  H  4  S    0.004268  -0.043602  -0.570844  -1.197944  -0.777590
   57  H  4  S    0.444857   0.016547   0.235603   0.070939   0.109306
   58  H  4  X   -0.041374   0.022420  -0.222335   0.086017  -0.055986
   59  H  4  Y   -0.144823  -0.024370   0.342991  -0.049685  -0.286141
   60  H  4  Z   -0.104099   0.082960   0.281230  -0.012128  -0.332039
   61  H  5  S   -0.319892  -0.226606  -0.397727  -0.309232  -0.336252
   62  H  5  S    0.520232   0.410817   0.103848   0.353438   0.785618
   63  H  5  S   -0.935425  -0.402117  -0.394378  -0.345326  -0.367046
   64  H  5  S    0.230768   0.269749   0.283499   0.818884  -0.033640
   65  H  5  X    0.686850  -0.165485  -0.078601  -0.059108   0.192874
   66  H  5  Y   -0.464262  -0.103592  -0.267322  -0.024187   0.106530
   67  H  5  Z    0.095146  -0.086902  -0.350771  -0.119076   0.294560

                     51         52         53         54         55
                    3.2132     3.2576     3.4258     3.4994     3.5464
                     A          A          A          A          A   
    1  C  1  S   -0.015083   0.030005  -0.013929   0.004287  -0.007132
    2  C  1  S   -0.069502   0.098104  -0.052397   0.019408  -0.002334
    3  C  1  X   -0.479892   0.088245  -0.010466  -0.310245  -0.635585
    4  C  1  Y   -0.227988   0.922895   0.141865  -0.258136   0.308902
    5  C  1  Z    0.520730  -0.604942  -0.170139  -0.049140   0.327062
    6  C  1  S    0.266400  -0.111464  -0.099839   0.659710   1.010787
    7  C  1  X    0.796675   0.025367  -0.224006   1.460803   2.550682
    8  C  1  Y    0.446898  -0.960455  -0.235325   0.363946  -0.409173
    9  C  1  Z   -0.300773   0.878222   0.187003   0.217333  -0.136266
   10  C  1  S    1.789485  -1.006743   1.134638  -0.354673   0.150029
   11  C  1  X    0.450244  -0.152275   0.259225  -0.248971  -0.147483
   12  C  1  Y    0.218293   0.792994   0.078575  -0.267157   0.267856
   13  C  1  Z    0.972132  -0.201345  -0.133540  -0.189418   0.321157
   14  C  1  S    0.092082   0.063951   0.324645  -0.778359  -0.979289
   15  C  1  X    0.029248  -0.187084   0.081823  -0.010046   0.081923
   16  C  1  Y   -0.849120  -0.775254   0.062453   0.148776  -0.086226
   17  C  1  Z   -0.959350  -0.772917   0.128070   0.163293   0.039674
   18  C  1 XX   -0.350560   0.237783  -0.649884   1.313791   1.793653
   19  C  1 YY   -0.028158   0.244173  -0.134208  -0.410188  -0.363486
   20  C  1 ZZ   -0.076421   0.247642   0.205240  -0.028870  -0.173803
   21  C  1 XY    0.057479   0.043946  -0.007722  -0.066444   0.082809
   22  C  1 XZ   -0.082329  -0.019453  -0.235063   0.325027   0.515025
   23  C  1 YZ    0.346799  -0.108665   0.359858  -0.347509  -0.494931
   24  O  2  S   -0.010331  -0.005664  -0.003253   0.009396   0.022108
   25  O  2  S   -0.022613  -0.011962  -0.000273   0.001899   0.016860
   26  O  2  X   -0.048920  -0.018652  -0.010961   0.020156   0.038740
   27  O  2  Y    0.011784   0.003887   0.003387  -0.009755   0.005304
   28  O  2  Z    0.018663   0.014957   0.008625  -0.022729   0.000095
   29  O  2  S    0.192521   0.050053   0.223988  -0.554578  -0.983280
   30  O  2  X   -0.010063   0.038677  -0.264201   0.756968   1.171403
   31  O  2  Y   -0.086518   0.049084  -0.000181   0.014358   0.051222
   32  O  2  Z    0.016703  -0.044969  -0.058868   0.150285   0.279928
   33  O  2  S   -1.089355  -0.105427   0.047495  -1.240786  -1.926135
   34  O  2  X    0.470795   0.135108  -0.026568   0.626345   0.856101
   35  O  2  Y   -0.030110  -0.015199   0.028953  -0.019804  -0.077509
   36  O  2  Z    0.037818  -0.100527   0.008305   0.181190   0.150126
   37  O  2  S   -0.863750   0.831032  -0.951748   1.088193   0.994280
   38  O  2  X    0.289297  -0.305567   0.320282  -0.432998  -0.398968
   39  O  2  Y    0.059363  -0.084255  -0.035935   0.025768   0.029480
   40  O  2  Z   -0.045220   0.173950   0.093249  -0.127947  -0.147761
   41  O  2 XX   -0.132136  -0.072384   0.003589  -0.247329  -0.478637
   42  O  2 YY    0.073852   0.051973   0.783337   0.342374   0.052921
   43  O  2 ZZ    0.037467   0.000485  -0.662470  -0.427728  -0.111398
   44  O  2 XY    0.023891   0.062504   0.006542   0.036588  -0.018460
   45  O  2 XZ    0.071173  -0.018687   0.199413  -0.069196  -0.025833
   46  O  2 YZ   -0.061258   0.033730   0.088142  -0.549355   0.585135
   47  H  3  S   -0.484021  -0.015950  -0.304041   0.434536   0.099335
   48  H  3  S    0.930709   0.121126   0.616181  -0.951887  -0.283829
   49  H  3  S   -0.404913  -0.227357  -0.429335   0.576662   0.167217
   50  H  3  S    0.091863  -0.166187   0.289565  -0.203143   0.206573
   51  H  3  X    0.071169  -0.012682   0.181229  -0.250033  -0.073488
   52  H  3  Y    0.043602   0.130675  -0.131183   0.165907   0.023567
   53  H  3  Z    0.202237   0.093135   0.169484  -0.166984  -0.157703
   54  H  4  S    0.750223   0.250792   0.115652  -0.416174   0.047963
   55  H  4  S   -1.606497  -0.408926  -0.405280   0.933461   0.295406
   56  H  4  S    0.990077   0.276306   0.231376  -0.521466  -0.311056
   57  H  4  S    0.691547   0.672554  -0.237148   0.162109   0.316560
   58  H  4  X    0.027536   0.021076   0.000872   0.067261  -0.138357
   59  H  4  Y    0.264744   0.026251   0.197192  -0.235807  -0.274440
   60  H  4  Z    0.268486  -0.020453   0.153785  -0.233859  -0.303682
   61  H  5  S   -0.878924  -0.830691   0.492744  -0.514446   0.151082
   62  H  5  S    1.253330   1.438349  -1.078063   1.088223   0.068286
   63  H  5  S   -0.888386  -0.941565   0.661873  -0.715489   0.094380
   64  H  5  S   -0.680791  -0.469624  -0.255660   0.580201   0.006757
   65  H  5  X    0.032342  -0.038800   0.087036  -0.158045  -0.120728
   66  H  5  Y   -0.083684   0.171271  -0.367721   0.405043   0.161931
   67  H  5  Z   -0.013638   0.077544  -0.180405   0.332100   0.142745

                     56         57         58         59         60
                    3.5970     3.7066     3.9109     4.2036     4.3103
                     A          A          A          A          A   
    1  C  1  S   -0.039754   0.098445  -0.061867  -0.028944   0.021044
    2  C  1  S   -0.170199   0.412946  -0.249834  -0.120667   0.088143
    3  C  1  X    0.566797   0.255154  -0.326116  -0.172497   0.133847
    4  C  1  Y   -0.146786  -0.505153  -0.441243  -0.377251  -0.317403
    5  C  1  Z    0.271560  -0.170364  -0.858864  -0.348778  -0.268315
    6  C  1  S   -0.519088  -0.867500   0.984994   0.563735  -0.344618
    7  C  1  X   -2.738301   0.458905   0.829858   0.531174  -0.284316
    8  C  1  Y    0.304420   0.767076   0.546702   0.992283   0.743133
    9  C  1  Z   -0.772118   0.350492   1.528507   0.459195   0.827673
   10  C  1  S   -1.452287  -1.357584   1.049281   0.604964  -0.587099
   11  C  1  X   -0.534823   0.063387   0.151866   0.301877  -0.355156
   12  C  1  Y   -0.030605  -0.241632  -0.157930  -0.006693  -0.021628
   13  C  1  Z   -0.051512  -0.045121  -0.276029   0.190650  -0.176571
   14  C  1  S    0.281626  -0.238883   0.129604   0.200611  -0.014500
   15  C  1  X   -0.057663  -0.052343  -0.017584   0.030298  -0.087485
   16  C  1  Y   -0.229630   0.039915  -0.107306  -0.153780  -0.159540
   17  C  1  Z   -0.313714   0.076075  -0.198736  -0.021509  -0.316102
   18  C  1 XX   -1.559059   1.680467  -0.374591  -0.135380   0.144717
   19  C  1 YY   -0.631365   1.025709  -0.622009  -0.224903   0.120180
   20  C  1 ZZ   -0.382920   1.195994  -0.800467  -0.538745   0.519531
   21  C  1 XY    0.057092  -0.039133  -0.249880   0.620960   0.337133
   22  C  1 XZ   -0.166851   0.219203  -0.054289  -0.476841   0.821605
   23  C  1 YZ   -0.510764   0.257322  -0.292704   0.051898   0.070854
   24  O  2  S   -0.014222   0.011116   0.003942   0.000445   0.003291
   25  O  2  S   -0.011911   0.013816  -0.000919  -0.001744   0.004561
   26  O  2  X   -0.040228   0.038975  -0.008958  -0.008901   0.022239
   27  O  2  Y   -0.000336  -0.008744  -0.017260  -0.114172  -0.084559
   28  O  2  Z   -0.033811  -0.020038  -0.007524   0.058942  -0.169785
   29  O  2  S    0.624936  -0.477279  -0.185295  -0.016035  -0.165853
   30  O  2  X   -0.931519   0.479912   0.246230   0.068185   0.109887
   31  O  2  Y   -0.013127  -0.102671  -0.034341  -0.062268  -0.038131
   32  O  2  Z   -0.216667  -0.009742  -0.009095   0.020958  -0.035476
   33  O  2  S    3.076522  -0.731404  -0.380532  -0.437786   0.387512
   34  O  2  X   -1.540468   0.359518   0.152315   0.153958  -0.045816
   35  O  2  Y   -0.031416   0.157865   0.287743  -0.519988  -0.284661
   36  O  2  Z   -0.231216   0.337504  -0.045067   0.265656  -0.580527
   37  O  2  S    0.059543   0.959273  -0.515225  -0.501828   0.506252
   38  O  2  X    0.170877  -0.413090   0.192946   0.150075  -0.170150
   39  O  2  Y    0.027334  -0.043808  -0.082287   0.247894   0.140069
   40  O  2  Z    0.042528  -0.246046   0.168298  -0.099987   0.310598
   41  O  2 XX    0.645286  -0.216899  -0.166155   0.069822  -0.311286
   42  O  2 YY    0.058621   0.140488  -0.074988  -0.008250  -0.009515
   43  O  2 ZZ   -0.348432  -0.123283   0.093019  -0.102267   0.268078
   44  O  2 XY   -0.060142  -0.174934  -0.529641   0.908092   0.486948
   45  O  2 XZ    0.126200  -0.308875   0.095348  -0.503645   0.954267
[...]
    6  C  1  S    0.000005  -0.000006  -0.011020   0.000036  -0.000024
    7  C  1  X   -0.009185  -0.015803  -0.020127  -0.007768   0.004536
    8  C  1  Y    0.053266   0.075338  -0.003961   0.036916  -0.026234
    9  C  1  Z   -0.076960   0.054031  -0.000345   0.026586   0.037747
   10  C  1  S   -0.000078  -0.000014   0.425011  -0.000089   0.000066
   11  C  1  X    0.022396   0.038563   0.098475  -0.027030   0.015798
   12  C  1  Y   -0.129947  -0.183741   0.019415   0.128718  -0.091366
   13  C  1  Z    0.187734  -0.131771   0.001686   0.092700   0.131474
   14  C  1  S    0.000212  -0.000182  -1.051381  -0.002211   0.001862
   15  C  1  X   -0.186451  -0.321127   2.154525   0.760224  -0.443410
   16  C  1  Y    1.082089   1.530046   0.425339  -3.620108   2.570678
   17  C  1  Z   -1.563332   1.097323   0.037268  -2.607012  -3.698672
   18  C  1 XX    0.001070   0.001781  -0.032777   0.002379  -0.001818
   19  C  1 YY   -0.001174  -0.003850   0.003235  -0.028830   0.001559
   20  C  1 ZZ    0.000111   0.002069   0.004687   0.026469   0.000243
   21  C  1 XY   -0.003468  -0.004429  -0.008546  -0.003025   0.005998
   22  C  1 XZ    0.005731  -0.003687  -0.000748  -0.007037  -0.015474
   23  C  1 YZ   -0.001498  -0.000875  -0.000151  -0.002185   0.028460
   24  O  2  S   -0.000000  -0.000000   0.012541   0.000000   0.000001
   25  O  2  S   -0.000001   0.000000   0.018363   0.000001   0.000001
   26  O  2  X    0.000883   0.001519   0.003348  -0.003857   0.002250
   27  O  2  Y   -0.005123  -0.007251   0.000660   0.018386  -0.013053
   28  O  2  Z    0.007402  -0.005200   0.000056   0.013242   0.018784
   29  O  2  S    0.000001   0.000003  -0.104057  -0.000001  -0.000010
   30  O  2  X    0.001981   0.003406  -0.006374  -0.010641   0.006208
   31  O  2  Y   -0.011484  -0.016250  -0.001260   0.050709  -0.036001
   32  O  2  Z    0.016592  -0.011654  -0.000114   0.036521   0.051804
   33  O  2  S    0.000011  -0.000026   0.279114  -0.000003   0.000044
   34  O  2  X   -0.001755  -0.003007   0.036031   0.017127  -0.010003
   35  O  2  Y    0.010134   0.014321   0.007112  -0.081607   0.057940
   36  O  2  Z   -0.014648   0.010273   0.000625  -0.058766  -0.083363
   37  O  2  S   -0.000005   0.000126  -2.271898   0.000150  -0.000417
   38  O  2  X    0.013598   0.023368   0.284337  -0.146773   0.085693
   39  O  2  Y   -0.078808  -0.111453   0.056127   0.698975  -0.496266
   40  O  2  Z    0.113878  -0.079940   0.004899   0.503389   0.714088
   41  O  2 XX    0.000318   0.000558  -0.009959   0.000443  -0.000283
   42  O  2 YY   -0.000372  -0.000145  -0.014001  -0.001860   0.000292
   43  O  2 ZZ    0.000054  -0.000410  -0.014164   0.001418  -0.000015
   44  O  2 XY   -0.001025  -0.001515   0.000959  -0.000991   0.000916
   45  O  2 XZ    0.001444  -0.001060   0.000084  -0.001000  -0.001722
   46  O  2 YZ    0.000712  -0.000226   0.000017  -0.000256   0.001381
   47  H  3  S    0.024585   0.003035   0.010406   0.004368  -0.035937
   48  H  3  S   -0.023431  -0.002886  -0.083842  -0.020995   0.172575
   49  H  3  S    0.630443   0.077810   0.459042   0.133532  -1.097309
   50  H  3  S   -5.315816  -0.655980   0.635198   0.632042  -5.200034
   51  H  3  X    0.005114  -0.000055   0.003875   0.000402   0.011917
   52  H  3  Y   -0.002475   0.002913   0.005599  -0.008062  -0.004973
   53  H  3  Z    0.003056   0.003352  -0.005164  -0.008738   0.006000
   54  H  4  S   -0.014923   0.019778   0.010403   0.028940   0.021747
   55  H  4  S    0.014227  -0.018861  -0.083836  -0.138941  -0.104409
   56  H  4  S   -0.382613   0.507099   0.459011   0.883618   0.663939
   57  H  4  S    3.226468  -4.274787   0.635204   4.186703   3.146622
   58  H  4  X   -0.003568   0.003419   0.004174  -0.007826  -0.008542
   59  H  4  Y    0.003560   0.002113   0.003037  -0.006156   0.009238
   60  H  4  Z    0.001476  -0.004200   0.006809   0.009031   0.002232
   61  H  5  S   -0.009664  -0.022818   0.010406  -0.033304   0.014185
   62  H  5  S    0.009207   0.021763  -0.083820   0.159844  -0.068102
   63  H  5  S   -0.247743  -0.584966   0.458953  -1.016486   0.433056
   64  H  5  S    2.089206   4.931044   0.635040  -4.817108   2.052115
   65  H  5  X   -0.001527  -0.003330   0.006071   0.008094  -0.003762
   66  H  5  Y   -0.001203  -0.005197  -0.005844   0.011014  -0.001999
   67  H  5  Z   -0.004365   0.000728  -0.001400  -0.002601  -0.011493

                     16         17         18         19
                    0.3392     0.4726     0.4968     0.4968
                     A          A          A          A   
    1  C  1  S    0.025879  -0.028424   0.000002   0.000002
    2  C  1  S    0.041407  -0.064268   0.000001   0.000002
    3  C  1  X    0.051302   0.005271  -0.030179  -0.009890
    4  C  1  Y    0.010141   0.000997   0.147399   0.063299
    5  C  1  Z    0.000884   0.000084   0.064014  -0.150422
    6  C  1  S   -0.181502  -0.069969  -0.000057  -0.000035
    7  C  1  X    0.049990  -0.058368  -0.017427  -0.005699
    8  C  1  Y    0.009866  -0.011563   0.085102   0.036519
    9  C  1  Z    0.000860  -0.001009   0.036967  -0.086796
   10  C  1  S    0.789095   2.644557   0.000403   0.000220
   11  C  1  X    0.554542   0.127288  -0.286050  -0.093743
   12  C  1  Y    0.109567   0.024788   1.397090   0.600069
   13  C  1  Z    0.009576   0.002114   0.606701  -1.425881
   14  C  1  S   16.151063   2.967135  -0.001121  -0.000715
   15  C  1  X   -1.545024  -0.777646   0.001940   0.000737
   16  C  1  Y   -0.305350  -0.153308  -0.009631  -0.004062
   17  C  1  Z   -0.026509  -0.013334  -0.004206   0.009762
   18  C  1 XX   -0.009739  -0.063617  -0.000927  -0.000571
   19  C  1 YY   -0.025581  -0.076214   0.018526  -0.003485
   20  C  1 ZZ   -0.026217  -0.076719  -0.017651   0.004028
   21  C  1 XY    0.003761   0.002991   0.000349   0.002473
   22  C  1 XZ    0.000331   0.000262   0.001340  -0.008642
   23  C  1 YZ    0.000068   0.000052   0.005260   0.019161
   24  O  2  S    0.006362   0.012757   0.000004  -0.000002
   25  O  2  S    0.008586   0.024318   0.000007  -0.000003
   26  O  2  X   -0.027410  -0.042404   0.004912   0.001610
   27  O  2  Y   -0.005416  -0.008365  -0.024048  -0.010329
   28  O  2  Z   -0.000475  -0.000739  -0.010443   0.024542
   29  O  2  S   -0.061878  -0.065818  -0.000017   0.000008
   30  O  2  X   -0.042327  -0.005001   0.008113   0.002652
   31  O  2  Y   -0.008360  -0.000975  -0.039611  -0.017008
   32  O  2  Z   -0.000736  -0.000091  -0.017205   0.040420
   33  O  2  S    0.172246  -0.266200  -0.000108   0.000005
   34  O  2  X   -0.001067  -0.330133   0.015954   0.005263
   35  O  2  Y   -0.000239  -0.065160  -0.078470  -0.033720
   36  O  2  Z   -0.000015  -0.005736  -0.034058   0.080097
   37  O  2  S   -3.778452  -1.176668  -0.000146  -0.000013
   38  O  2  X    1.050610   2.024628   0.092937   0.030244
   39  O  2  Y    0.207483   0.399825  -0.449801  -0.193104
   40  O  2  Z    0.018057   0.035050  -0.195465   0.459075
   41  O  2 XX   -0.008431   0.026043   0.002848   0.000898
   42  O  2 YY   -0.010117  -0.000491  -0.000529  -0.001655
   43  O  2 ZZ   -0.010184  -0.001559  -0.002309   0.000757
   44  O  2 XY    0.000399   0.006297  -0.007935  -0.003152
   45  O  2 XZ    0.000035   0.000552  -0.003416   0.007420
   46  O  2 YZ    0.000007   0.000109  -0.000200   0.004005
   47  H  3  S   -0.024304  -0.015530  -0.008985  -0.026031
   48  H  3  S    0.160921  -0.022158   0.050026   0.144919
   49  H  3  S   -1.659717  -0.776820  -0.965465  -2.796226
   50  H  3  S   -3.419852  -0.511658   0.603998   1.748320
   51  H  3  X   -0.006564   0.001655   0.002570   0.011491
   52  H  3  Y   -0.000375  -0.005752   0.001204  -0.015488
   53  H  3  Z   -0.001109   0.006605   0.011326   0.015257
   54  H  4  S   -0.024305  -0.015533  -0.018054   0.020821
   55  H  4  S    0.160949  -0.022141   0.100386  -0.115820
   56  H  4  S   -1.659779  -0.776816  -1.937734   2.234840
   57  H  4  S   -3.419769  -0.511733   1.212073  -1.397027
   58  H  4  X   -0.006510   0.001278   0.005837  -0.009066
   59  H  4  Y   -0.000863  -0.002532   0.002441   0.009360
   60  H  4  Z    0.001173  -0.008446  -0.016970   0.015568
   61  H  5  S   -0.024310  -0.015549   0.027081   0.005234
   62  H  5  S    0.160939  -0.022138  -0.150452  -0.029110
   63  H  5  S   -1.659732  -0.777481   2.904478   0.561630
   64  H  5  S   -3.419457  -0.510552  -1.815681  -0.350834
   65  H  5  X   -0.006147  -0.001107  -0.004058  -0.000997
   66  H  5  Y   -0.002564   0.008640  -0.024820  -0.002985
   67  H  5  Z   -0.000394   0.001875  -0.003548  -0.009181

     ----------------------------------------------------------------
     PROPERTY VALUES FOR THE UHF   SELF-CONSISTENT FIELD WAVEFUNCTION
     ----------------------------------------------------------------

          -----------------
          ENERGY COMPONENTS
          -----------------

         WAVEFUNCTION NORMALIZATION =       1.0000000000

                ONE ELECTRON ENERGY =    -230.1837589638
                TWO ELECTRON ENERGY =      81.0762839159
           NUCLEAR REPULSION ENERGY =      34.6635226768
                                      ------------------
                       TOTAL ENERGY =    -114.4439523710

 ELECTRON-ELECTRON POTENTIAL ENERGY =      81.0762839159
  NUCLEUS-ELECTRON POTENTIAL ENERGY =    -344.6067013785
   NUCLEUS-NUCLEUS POTENTIAL ENERGY =      34.6635226768
                                      ------------------
             TOTAL POTENTIAL ENERGY =    -228.8668947857
               TOTAL KINETIC ENERGY =     114.4229424147
                 VIRIAL RATIO (V/T) =       2.0001836166

          ---------------------------------------
          MULLIKEN AND LOWDIN POPULATION ANALYSES
          ---------------------------------------

     ATOMIC MULLIKEN POPULATION IN EACH MOLECULAR ORBITAL
        ALPHA ORBITALS

                      1          2          3          4          5

                  1.000000   1.000000   1.000000   1.000000   1.000000

    1            -0.000029   0.999893   0.272444   0.492259   0.450549
    2             1.000021  -0.000036   0.723945   0.144880   0.173975
    3             0.000003   0.000048   0.001206   0.120997   0.247421
    4             0.000003   0.000048   0.001203   0.120967   0.077707
    5             0.000003   0.000048   0.001202   0.120898   0.050349

                      6          7          8          9

                  1.000000   1.000000   1.000000   1.000000

    1             0.450527   0.264286   0.048681   0.048684
    2             0.174034   0.673656   0.758737   0.758658
    3             0.002859   0.020681   0.125771   0.002586
    4             0.172601   0.020675   0.047821   0.080595
    5             0.199979   0.020702   0.018990   0.109478

     ATOMIC MULLIKEN POPULATION IN EACH MOLECULAR ORBITAL
         BETA ORBITALS

                      1          2          3          4          5

                  1.000000   1.000000   1.000000   1.000000   1.000000

    1            -0.000029   0.999893   0.272444   0.492259   0.450549
    2             1.000021  -0.000036   0.723945   0.144880   0.173975
    3             0.000003   0.000048   0.001206   0.120997   0.247421
    4             0.000003   0.000048   0.001203   0.120967   0.077707
    5             0.000003   0.000048   0.001202   0.120898   0.050349

                      6          7          8          9

                  1.000000   1.000000   1.000000   1.000000

    1             0.450527   0.264286   0.048681   0.048684
    2             0.174034   0.673656   0.758737   0.758658
    3             0.002859   0.020681   0.125771   0.002586
    4             0.172601   0.020675   0.047821   0.080595
    5             0.199979   0.020702   0.018990   0.109478

     ATOMIC SPIN POPULATION (ALPHA MINUS BETA)
       ATOM         MULL.POP.                    LOW.POP.
    1 C             0.000000                     0.000000
    2 O             0.000000                     0.000000
    3 H             0.000000                     0.000000
    4 H             0.000000                     0.000000
    5 H             0.000000                     0.000000


          ********* ALL ELECTRONS ********

               ----- POPULATIONS IN EACH AO -----
                             MULLIKEN      LOWDIN
              1  C  1  S      1.10364     1.04645
              2  C  1  S      0.89039     0.91052
              3  C  1  X      0.19369     0.19523
              4  C  1  Y      0.18183     0.17763
              5  C  1  Z      0.18138     0.17698
              6  C  1  S      0.72222     0.37481
              7  C  1  X      0.50793     0.46103
              8  C  1  Y      0.47937     0.43910
              9  C  1  Z      0.47825     0.43906
             10  C  1  S      0.39118     0.20999
             11  C  1  X      0.12957     0.23539
             12  C  1  Y      0.26195     0.33070
             13  C  1  Z      0.26725     0.33480
             14  C  1  S      0.09296     0.05896
             15  C  1  X      0.00429     0.03125
             16  C  1  Y      0.01513     0.05518
             17  C  1  Z      0.01556     0.05614
             18  C  1 XX      0.03817     0.17951
             19  C  1 YY      0.00622     0.14010
             20  C  1 ZZ     -0.00160     0.12748
             21  C  1 XY      0.03862     0.06913
             22  C  1 XZ      0.04995     0.09240
             23  C  1 YZ      0.00662     0.01266
             24  O  2  S      1.08365     1.03244
             25  O  2  S      0.91186     0.93181
             26  O  2  X      0.24514     0.24282
             27  O  2  Y      0.33498     0.34121
             28  O  2  Z      0.33859     0.34513
             29  O  2  S      0.97337     0.56036
             30  O  2  X      0.58332     0.56657
             31  O  2  Y      0.74158     0.73428
             32  O  2  Z      0.74796     0.73988
             33  O  2  S      0.92779     0.43835
             34  O  2  X      0.35634     0.44845
             35  O  2  Y      0.65706     0.61142
             36  O  2  Z      0.66917     0.61696
             37  O  2  S      0.02238     0.13440
             38  O  2  X      0.00909     0.11231
             39  O  2  Y      0.10362     0.16196
             40  O  2  Z      0.10743     0.16393
             41  O  2 XX      0.00765     0.20293
             42  O  2 YY     -0.00475     0.19777
             43  O  2 ZZ     -0.00504     0.19771
             44  O  2 XY      0.00249     0.00330
             45  O  2 XZ      0.00198     0.00254
             46  O  2 YZ      0.00009     0.00009
             47  H  3  S      0.26956     0.27669
             48  H  3  S      0.57490     0.46702
             49  H  3  S      0.17342     0.18825
             50  H  3  S      0.00418     0.03815
             51  H  3  X      0.00474     0.01308
             52  H  3  Y      0.00705     0.01493
             53  H  3  Z      0.00929     0.01845
             54  H  4  S      0.26953     0.27777
             55  H  4  S      0.57492     0.46830
             56  H  4  S      0.17351     0.18838
             57  H  4  S      0.00421     0.03816
             58  H  4  X      0.00431     0.01248
             59  H  4  Y      0.00468     0.01124
             60  H  4  Z      0.01209     0.02316
             61  H  5  S      0.26950     0.27915
             62  H  5  S      0.57492     0.46986
             63  H  5  S      0.17358     0.18852
             64  H  5  S      0.00424     0.03817
             65  H  5  X      0.00228     0.00950
             66  H  5  Y      0.01393     0.02609
             67  H  5  Z      0.00486     0.01147

          ----- MULLIKEN ATOMIC OVERLAP POPULATIONS -----
          (OFF-DIAGONAL ELEMENTS NEED TO BE MULTIPLIED BY 2)

             1           2           3           4           5

    1    4.7030463
    2    0.2044908   8.9769961
    3    0.3824294  -0.1219248   1.1105878
    4    0.3822072  -0.1218880  -0.1639833   1.1108919
    5    0.3824126  -0.1219348  -0.1639694  -0.1639909   1.1107803

          TOTAL MULLIKEN AND LOWDIN ATOMIC POPULATIONS
       ATOM         MULL.POP.    CHARGE          LOW.POP.     CHARGE
    1 C             6.054586   -0.054586         6.154521   -0.154521
    2 O             8.815739   -0.815739         8.786644   -0.786644
    3 H             1.043140   -0.043140         1.016570   -0.016570
    4 H             1.043237   -0.043237         1.019492   -0.019492
    5 H             1.043298   -0.043298         1.022772   -0.022772

          -------------------------------
          BOND ORDER AND VALENCE ANALYSIS     BOND ORDER THRESHOLD=0.050
          -------------------------------

                   BOND                       BOND                       BOND
  ATOM PAIR DIST  ORDER      ATOM PAIR DIST  ORDER      ATOM PAIR DIST  ORDER
    1   2  1.326  1.174        1   3  1.123  0.969        1   4  1.124  0.969
    1   5  1.124  0.969

                       TOTAL       BONDED        FREE
      ATOM            VALENCE     VALENCE     VALENCE
    1 C                 4.081       4.081      -0.000
    2 O                 1.046       1.046      -0.000
    3 H                 0.843       0.843      -0.000
    4 H                 0.843       0.843      -0.000
    5 H                 0.843       0.843      -0.000

          -----------------------------------------
          ATOMIC SPIN DENSITY AT THE NUCLEUS (A.U.)
          -----------------------------------------
                            SPIN DENS    ALPHA DENS     BETA DENS
    1  C            6.0     0.0000000      59.70354      59.70354
    2  O            8.0     0.0000000     147.49159     147.49159
    3  H            1.0     0.0000000       0.21814       0.21814
    4  H            1.0     0.0000000       0.21811       0.21811
    5  H            1.0     0.0000000       0.21808       0.21808

          ---------------------
          ELECTROSTATIC MOMENTS
          ---------------------

 POINT   1           X           Y           Z (BOHR)    CHARGE
                 1.221880    0.241278   -0.281265       -1.00 (A.U.)
         DX          DY          DZ         /D/  (DEBYE)
    -2.374839   -0.468220   -0.041229    2.420907
 ...... END OF PROPERTY EVALUATION ......
 STEP CPU TIME =     0.01 TOTAL CPU TIME =       20.1 (    0.3 MIN)
 TOTAL WALL CLOCK TIME=       20.1 SECONDS, CPU UTILIZATION IS  99.90%
  $VIB   
          IVIB=   0 IATOM=   0 ICOORD=   0 E=     -114.4439523710
  2.295595471E-05 8.091803583E-05-1.433777610E-05-4.174064165E-05-1.026339962E-05
 -9.833189157E-06 3.100077966E-05-1.912599550E-05 4.128780836E-05-5.564592028E-06
 -4.213356132E-06-1.475300832E-05-6.651493881E-06-4.731528483E-05-2.363834537E-06
 -2.374838604E+00-4.682203977E-01-4.122894752E-02
 ......END OF GEOMETRY SEARCH......
 STEP CPU TIME =     0.00 TOTAL CPU TIME =       20.1 (    0.3 MIN)
 TOTAL WALL CLOCK TIME=       20.1 SECONDS, CPU UTILIZATION IS  99.90%
               993152  WORDS OF DYNAMIC MEMORY USED
 EXECUTION OF GAMESS TERMINATED NORMALLY Thu Mar 10 23:52:51 2016
 DDI: 263640 bytes (0.3 MB / 0 MWords) used by master data server.

 ----------------------------------------
 CPU timing information for all processes
 ========================================
 0: 18.686 + 1.384 = 20.71
 ----------------------------------------
 ddikick.x: exited gracefully.
----- accounting info -----
Files used on the master node andre-mint were:
-rw-r--r-- 1 andrepd andrepd   653629 Mar 10 23:52 ./7_CH3O-_b.dat
-rw-r--r-- 1 andrepd andrepd      387 Mar 10 23:52 ./7_CH3O-_b.F05
-rw-r--r-- 1 andrepd andrepd 30422704 Mar 10 23:52 ./7_CH3O-_b.F08
-rw-r--r-- 1 andrepd andrepd  2192240 Mar 10 23:52 ./7_CH3O-_b.F10
-rw-r--r-- 1 andrepd andrepd      387 Mar 10 23:50 ./7_CH3O-_b.inp
-rw-r--r-- 1 andrepd andrepd   314403 Mar 10 23:52 ./7_CH3O-_b.out
Qui Mar 10 23:52:54 WET 2016
0.0u 0.0s 0:23.18 0.3% 0+0k 0+8io 0pf+0w
