----- GAMESS execution script 'rungms' -----
This job is running on host andre-mint
under operating system Linux at Qui Mar 10 23:50:59 WET 2016
Available scratch disk space (Kbyte units) at beginning of the job is
Filesystem     1K-blocks     Used Available Use% Mounted on
/dev/sda5       72784020 71020396    265660 100% /home
GAMESS temporary binary files will be written to .
GAMESS supplementary output files will be written to .
Copying input file 7_CH3OH_a.inp to your run's scratch directory...

 Distributed Data Interface kickoff program.
 Initiating 1 compute processes on 1 nodes to run the following command:
 /home/andrepd/Development/gamess/gamess//gamess.69.x 7_CH3OH_a 

          ******************************************************
          *         GAMESS VERSION =  5 DEC 2014 (R1)          *
          *             FROM IOWA STATE UNIVERSITY             *
          * M.W.SCHMIDT, K.K.BALDRIDGE, J.A.BOATZ, S.T.ELBERT, *
          *   M.S.GORDON, J.H.JENSEN, S.KOSEKI, N.MATSUNAGA,   *
          *          K.A.NGUYEN, S.J.SU, T.L.WINDUS,           *
          *       TOGETHER WITH M.DUPUIS, J.A.MONTGOMERY       *
          *         J.COMPUT.CHEM.  14, 1347-1363(1993)        *
          **************** 64 BIT LINUX VERSION ****************

  SINCE 1993, STUDENTS AND POSTDOCS WORKING AT IOWA STATE UNIVERSITY
  AND ALSO IN THEIR VARIOUS JOBS AFTER LEAVING ISU HAVE MADE IMPORTANT
  CONTRIBUTIONS TO THE CODE:
     IVANA ADAMOVIC, CHRISTINE AIKENS, YURI ALEXEEV, POOJA ARORA,
     ANDREY ASADCHEV, ROB BELL, PRADIPTA BANDYOPADHYAY, JONATHAN BENTZ,
     BRETT BODE, KURT BRORSEN, CALEB CARLIN, GALINA CHABAN, WEI CHEN,
     CHEOL HO CHOI, PAUL DAY, ALBERT DEFUSCO, NUWAN DESILVA, TIM DUDLEY,
     DMITRI FEDOROV, GRAHAM FLETCHER, MARK FREITAG, KURT GLAESEMANN,
     DAN KEMP, GRANT MERRILL, NORIYUKI MINEZAWA, JONATHAN MULLIN,
     TAKESHI NAGATA, SEAN NEDD, HEATHER NETZLOFF, BOSILJKA NJEGIC, RYAN OLSON,
     MIKE PAK, SPENCER PRUITT, LUKE ROSKOP, JIM SHOEMAKER, LYUDMILA SLIPCHENKO,
     TONY SMITH, SAROM SOK, JIE SONG, TETSUYA TAKETSUGU, SIMON WEBB,
     PENG XU, SOOHAENG YOO, FEDERICO ZAHARIEV

  ADDITIONAL CODE HAS BEEN PROVIDED BY COLLABORATORS IN OTHER GROUPS:
     IOWA STATE UNIVERSITY:
          JOE IVANIC, AARON WEST, LAIMUTIS BYTAUTAS, KLAUS RUEDENBERG
     UNIVERSITY OF TOKYO: KIMIHIKO HIRAO, TAKAHITO NAKAJIMA,
          TAKAO TSUNEDA, MUNEAKI KAMIYA, SUSUMU YANAGISAWA,
          KIYOSHI YAGI, MAHITO CHIBA, SEIKEN TOKURA, NAOAKI KAWAKAMI
     UNIVERSITY OF AARHUS: FRANK JENSEN
     UNIVERSITY OF IOWA: VISVALDAS KAIRYS, HUI LI
     NATIONAL INST. OF STANDARDS AND TECHNOLOGY: WALT STEVENS, DAVID GARMER
     UNIVERSITY OF PISA: BENEDETTA MENNUCCI, JACOPO TOMASI
     UNIVERSITY OF MEMPHIS: HENRY KURTZ, PRAKASHAN KORAMBATH
     UNIVERSITY OF ALBERTA: TOBY ZENG, MARIUSZ KLOBUKOWSKI
     UNIVERSITY OF NEW ENGLAND: MARK SPACKMAN
     MIE UNIVERSITY: HIROAKI UMEDA
     NAT. INST. OF ADVANCED INDUSTRIAL SCIENCE AND TECHNOLOGY: KAZUO KITAURA
     MICHIGAN STATE UNIVERSITY:
          KAROL KOWALSKI, MARTA WLOCH, JEFFREY GOUR, JESSE LUTZ,
          WEI LI, PIOTR PIECUCH
     UNIVERSITY OF SILESIA: MONIKA MUSIAL, STANISLAW KUCHARSKI
     FACULTES UNIVERSITAIRES NOTRE-DAME DE LA PAIX:
          OLIVIER QUINET, BENOIT CHAMPAGNE
     UNIVERSITY OF CALIFORNIA - SANTA BARBARA: BERNARD KIRTMAN
     INSTITUTE FOR MOLECULAR SCIENCE:
          KAZUYA ISHIMURA, MICHIO KATOUDA, AND SHIGERU NAGASE
     UNIVERSITY OF NOTRE DAME: ANNA POMOGAEVA, DAN CHIPMAN
     KYUSHU UNIVERSITY:
          HARUYUKI NAKANO,
          FENG LONG GU, JACEK KORCHOWIEC, MARCIN MAKOWSKI, AND YURIKO AOKI,
          HIROTOSHI MORI AND EISAKU MIYOSHI
     PENNSYLVANIA STATE UNIVERSITY:
          TZVETELIN IORDANOV, CHET SWALINA, JONATHAN SKONE,
          SHARON HAMMES-SCHIFFER
     WASEDA UNIVERSITY:
          MASATO KOBAYASHI, TOMOKO AKAMA, TSUGUKI TOUMA,
          TAKESHI YOSHIKAWA, YASUHIRO IKABATA, HIROMI NAKAI
     NANJING UNIVERSITY: SHUHUA LI
     UNIVERSITY OF NEBRASKA:
          PEIFENG SU, DEJUN SI, NANDUN THELLAMUREGE, YALI WANG, HUI LI
     UNIVERSITY OF ZURICH: ROBERTO PEVERATI, KIM BALDRIDGE
     N. COPERNICUS UNIVERSITY AND JACKSON STATE UNIVERSITY:
          MARIA BARYSZ
     UNIVERSITY OF COPENHAGEN: CASPER STEINMANN
     TOKYO INSTITUTE OF TECHNOLOGY: HIROYA NAKATA
     NAGOYA UNIVERSITY: YOSHIO NISHIMOTO, STEPHAN IRLE

 EXECUTION OF GAMESS BEGUN Thu Mar 10 23:50:59 2016

            ECHO OF THE FIRST FEW INPUT CARDS -
 INPUT CARD>!   File created by MacMolPlt 7.6.2                                             
 INPUT CARD> $CONTRL SCFTYP=UHF RUNTYP=OPTIMIZE MAXIT=200 MULT=1 $END                       
 INPUT CARD> $BASIS GBASIS=N31 NGAUSS=6 NDFUNC=1 NPFUNC=1 $END                              
 INPUT CARD>! $SCF DIRSCF=.TRUE. $END                                                       
 INPUT CARD> $DATA                                                                          
 INPUT CARD>CH3OH                                                                           
 INPUT CARD>C1                                                                              
 INPUT CARD>C  6.0  0.00  0.00  0.00                                                        
 INPUT CARD>O  8.0  1.00  0.00  0.20                                                        
 INPUT CARD>H  1.0  2.00  0.00  1.00                                                        
 INPUT CARD>H  1.0  -1.00  0.00  -1.00                                                      
 INPUT CARD>H  1.0  0.00  1.00  1.00                                                        
 INPUT CARD>H  1.0  0.00  -1.00  -1.00                                                      
 INPUT CARD> $END                                                                           
    1000000 WORDS OF MEMORY AVAILABLE

     BASIS OPTIONS
     -------------
     GBASIS=N31          IGAUSS=       6      POLAR=POPN31  
     NDFUNC=       1     NFFUNC=       0     DIFFSP=       F
     NPFUNC=       1      DIFFS=       F     BASNAM=        


     RUN TITLE
     ---------
 CH3OH                                                                           

 THE POINT GROUP OF THE MOLECULE IS C1      
 THE ORDER OF THE PRINCIPAL AXIS IS     0

 ATOM      ATOMIC                      COORDINATES (BOHR)
           CHARGE         X                   Y                   Z
 C           6.0     0.0000000000        0.0000000000        0.0000000000
 O           8.0     1.8897259877        0.0000000000        0.3779451975
 H           1.0     3.7794519754        0.0000000000        1.8897259877
 H           1.0    -1.8897259877        0.0000000000       -1.8897259877
 H           1.0     0.0000000000        1.8897259877        1.8897259877
 H           1.0     0.0000000000       -1.8897259877       -1.8897259877

          INTERNUCLEAR DISTANCES (ANGS.)
          ------------------------------

                1 C          2 O          3 H          4 H          5 H     

   1 C       0.0000000    1.0198039 *  2.2360680 *  1.4142136 *  1.4142136 *
   2 O       1.0198039 *  0.0000000    1.2806248 *  2.3323808 *  1.6248077 *
   3 H       2.2360680 *  1.2806248 *  0.0000000    3.6055513    2.2360680 *
   4 H       1.4142136 *  2.3323808 *  3.6055513    0.0000000    2.4494897 *
   5 H       1.4142136 *  1.6248077 *  2.2360680 *  2.4494897 *  0.0000000  
   6 H       1.4142136 *  1.8547237 *  3.0000000 *  1.4142136 *  2.8284271 *

                6 H     

   1 C       1.4142136 *
   2 O       1.8547237 *
   3 H       3.0000000 *
   4 H       1.4142136 *
   5 H       2.8284271 *
   6 H       0.0000000  

  * ... LESS THAN  3.000


     ATOMIC BASIS SET
     ----------------
 THE CONTRACTED PRIMITIVE FUNCTIONS HAVE BEEN UNNORMALIZED
 THE CONTRACTED BASIS FUNCTIONS ARE NOW NORMALIZED TO UNITY

  SHELL TYPE  PRIMITIVE        EXPONENT          CONTRACTION COEFFICIENT(S)

 C         

      1   S       1          3047.5248800    0.001834737132
      1   S       2           457.3695180    0.014037322813
      1   S       3           103.9486850    0.068842622264
      1   S       4            29.2101553    0.232184443216
      1   S       5             9.2866630    0.467941348435
      1   S       6             3.1639270    0.362311985337

      2   L       7             7.8682723   -0.119332419775    0.068999066591
      2   L       8             1.8812885   -0.160854151696    0.316423960957
      2   L       9             0.5442493    1.143456437840    0.744308290898

      3   L      10             0.1687145    1.000000000000    1.000000000000

      4   D      11             0.8000000    1.000000000000

 O         

      5   S      12          5484.6716600    0.001831074430
      5   S      13           825.2349460    0.013950172200
      5   S      14           188.0469580    0.068445078098
      5   S      15            52.9645000    0.232714335992
      5   S      16            16.8975704    0.470192897984
      5   S      17             5.7996353    0.358520852987

      6   L      18            15.5396162   -0.110777549525    0.070874268231
      6   L      19             3.5999336   -0.148026262701    0.339752839147
      6   L      20             1.0137618    1.130767015354    0.727158577316

      7   L      21             0.2700058    1.000000000000    1.000000000000

      8   D      22             0.8000000    1.000000000000

 H         

      9   S      23            18.7311370    0.033494604338
      9   S      24             2.8253944    0.234726953484
      9   S      25             0.6401217    0.813757326146

     10   S      26             0.1612778    1.000000000000

     11   P      27             1.1000000    1.000000000000

 H         

     12   S      28            18.7311370    0.033494604338
     12   S      29             2.8253944    0.234726953484
     12   S      30             0.6401217    0.813757326146

     13   S      31             0.1612778    1.000000000000

     14   P      32             1.1000000    1.000000000000

 H         

     15   S      33            18.7311370    0.033494604338
     15   S      34             2.8253944    0.234726953484
     15   S      35             0.6401217    0.813757326146

     16   S      36             0.1612778    1.000000000000

     17   P      37             1.1000000    1.000000000000

 H         

     18   S      38            18.7311370    0.033494604338
     18   S      39             2.8253944    0.234726953484
     18   S      40             0.6401217    0.813757326146

     19   S      41             0.1612778    1.000000000000

     20   P      42             1.1000000    1.000000000000

 TOTAL NUMBER OF BASIS SET SHELLS             =   20
 NUMBER OF CARTESIAN GAUSSIAN BASIS FUNCTIONS =   50
 NUMBER OF ELECTRONS                          =   18
 CHARGE OF MOLECULE                           =    0
 SPIN MULTIPLICITY                            =    1
 NUMBER OF OCCUPIED ORBITALS (ALPHA)          =    9
 NUMBER OF OCCUPIED ORBITALS (BETA )          =    9
 TOTAL NUMBER OF ATOMS                        =    6
 THE NUCLEAR REPULSION ENERGY IS       44.4084353222

     $CONTRL OPTIONS
     ---------------
 SCFTYP=UHF          RUNTYP=OPTIMIZE     EXETYP=RUN     
 MPLEVL=       0     CITYP =NONE         CCTYP =NONE         VBTYP =NONE    
 DFTTYP=NONE         TDDFT =NONE    
 MULT  =       1     ICHARG=       0     NZVAR =       0     COORD =UNIQUE  
 PP    =NONE         RELWFN=NONE         LOCAL =NONE         NUMGRD=       F
 ISPHER=      -1     NOSYM =       0     MAXIT =     200     UNITS =ANGS    
 PLTORB=       F     MOLPLT=       F     AIMPAC=       F     FRIEND=        
 NPRINT=       7     IREST =       0     GEOM  =INPUT   
 NORMF =       0     NORMP =       0     ITOL  =      20     ICUT  =       9
 INTTYP=BEST         GRDTYP=BEST         QMTTOL= 1.0E-06

     $SYSTEM OPTIONS
     ---------------
  REPLICATED MEMORY=     1000000 WORDS (ON EVERY NODE).
 DISTRIBUTED MEMDDI=           0 MILLION WORDS IN AGGREGATE,
 MEMDDI DISTRIBUTED OVER   1 PROCESSORS IS           0 WORDS/PROCESSOR.
 TOTAL MEMORY REQUESTED ON EACH PROCESSOR=     1000000 WORDS.
 TIMLIM=      525600.00 MINUTES, OR     365.0 DAYS.
 PARALL= F  BALTYP=  DLB     KDIAG=    0  COREFL= F
 MXSEQ2=     300 MXSEQ3=     150  mem10=         0

          ----------------
          PROPERTIES INPUT
          ----------------

     MOMENTS            FIELD           POTENTIAL          DENSITY
 IEMOM =       1   IEFLD =       0   IEPOT =       0   IEDEN =       0
 WHERE =COMASS     WHERE =NUCLEI     WHERE =NUCLEI     WHERE =NUCLEI  
 OUTPUT=BOTH       OUTPUT=BOTH       OUTPUT=BOTH       OUTPUT=BOTH    
 IEMINT=       0   IEFINT=       0                     IEDINT=       0
                                                       MORB  =       0
          EXTRAPOLATION IN EFFECT
          SOSCF IN EFFECT
          DIIS or SOSCF will be reset if energy rises
 ORBITAL PRINTING OPTION: NPREO=     1    50     2     1

     -------------------------------
     INTEGRAL TRANSFORMATION OPTIONS
     -------------------------------
     NWORD  =            0
     CUTOFF = 1.0E-09     MPTRAN =       0
     DIRTRF =       F     AOINTS =DUP     

          ----------------------
          INTEGRAL INPUT OPTIONS
          ----------------------
 NOPK  =       1 NORDER=       0 SCHWRZ=       T

     ------------------------------------------
     THE POINT GROUP IS C1 , NAXIS= 0, ORDER= 1
     ------------------------------------------

     DIMENSIONS OF THE SYMMETRY SUBSPACES ARE
 A   =   50

 ..... DONE SETTING UP THE RUN .....
 STEP CPU TIME =     0.01 TOTAL CPU TIME =        0.0 (    0.0 MIN)
 TOTAL WALL CLOCK TIME=        0.0 SECONDS, CPU UTILIZATION IS 100.00%


          -----------------------------
          STATIONARY POINT LOCATION RUN
          -----------------------------

 OBTAINING INITIAL HESSIAN, HESS=GUESS   
 CARTESIAN COORDINATE OPTIMIZATION USING BADGER'S RULE FORCE CONSTANT GUESS

          PARAMETERS CONTROLLING GEOMETRY SEARCH ARE
          METHOD =QA                  UPHESS =BFGS    
          NNEG   =         0          NFRZ   =         0
          NSTEP  =        50          IFOLOW =         1
          HESS   =GUESS               RESTAR =         F
          IHREP  =         0          HSSEND =         F
          NPRT   =         0          NPUN   =         0
          OPTTOL = 1.000E-04          RMIN   = 1.500E-03
          RMAX   = 1.000E-01          RLIM   = 7.000E-02
          DXMAX  = 3.000E-01          PURIFY =         F
          MOVIE  =         F          TRUPD  =         T
          TRMAX  = 5.000E-01          TRMIN  = 5.000E-02
          ITBMAT =         5          STPT   =         F
          STSTEP = 1.000E-02          PROJCT=          T

 BEGINNING GEOMETRY SEARCH POINT NSERCH=   0 ...

 COORDINATES OF ALL ATOMS ARE (ANGS)
   ATOM   CHARGE       X              Y              Z
 ------------------------------------------------------------
 C           6.0   0.0000000000   0.0000000000   0.0000000000
 O           8.0   1.0000000000   0.0000000000   0.2000000000
 H           1.0   2.0000000000   0.0000000000   1.0000000000
 H           1.0  -1.0000000000   0.0000000000  -1.0000000000
 H           1.0   0.0000000000   1.0000000000   1.0000000000
 H           1.0   0.0000000000  -1.0000000000  -1.0000000000

          ********************
          1 ELECTRON INTEGRALS
          ********************
 ...... END OF ONE-ELECTRON INTEGRALS ......
 STEP CPU TIME =     0.00 TOTAL CPU TIME =        0.0 (    0.0 MIN)
 TOTAL WALL CLOCK TIME=        0.0 SECONDS, CPU UTILIZATION IS 100.00%

          -------------
          GUESS OPTIONS
          -------------
          GUESS =HUCKEL            NORB  =       0          NORDER=       0
          MIX   =       F          PRTMO =       F          PUNMO =       F
          TOLZ  = 1.0E-08          TOLE  = 1.0E-05
          SYMDEN=       F          PURIFY=       F

 INITIAL GUESS ORBITALS GENERATED BY HUCKEL   ROUTINE.
 HUCKEL GUESS REQUIRES     23352 WORDS.

 SYMMETRIES FOR INITIAL GUESS ORBITALS FOLLOW.  ALPHA SET(S).
     9 ORBITALS ARE OCCUPIED (    2 CORE ORBITALS).
     3=A        4=A        5=A        6=A        7=A        8=A        9=A   
    10=A       11=A       12=A       13=A       14=A       15=A       16=A   
    17=A       18=A       19=A   

 SYMMETRIES FOR INITIAL GUESS ORBITALS FOLLOW.   BETA SET(S).
     9 ORBITALS ARE OCCUPIED (    2 CORE ORBITALS).
     3=A        4=A        5=A        6=A        7=A        8=A        9=A   
    10=A       11=A       12=A       13=A       14=A       15=A       16=A   
    17=A       18=A       19=A   
 ...... END OF INITIAL ORBITAL SELECTION ......
 STEP CPU TIME =     0.00 TOTAL CPU TIME =        0.0 (    0.0 MIN)
 TOTAL WALL CLOCK TIME=        0.0 SECONDS, CPU UTILIZATION IS 100.00%

                    ----------------------
                    AO INTEGRAL TECHNOLOGY
                    ----------------------
     S,P,L SHELL ROTATED AXIS INTEGRALS, REPROGRAMMED BY
        KAZUYA ISHIMURA (IMS) AND JOSE SIERRA (SYNSTAR).
     S,P,D,L SHELL ROTATED AXIS INTEGRALS PROGRAMMED BY
        KAZUYA ISHIMURA (INSTITUTE FOR MOLECULAR SCIENCE).
     S,P,D,F,G SHELL TO TOTAL QUARTET ANGULAR MOMENTUM SUM 5,
        ERIC PROGRAM BY GRAHAM FLETCHER (ELORET AND NASA ADVANCED
        SUPERCOMPUTING DIVISION, AMES RESEARCH CENTER).
     S,P,D,F,G,L SHELL GENERAL RYS QUADRATURE PROGRAMMED BY
        MICHEL DUPUIS (PACIFIC NORTHWEST NATIONAL LABORATORY).

          --------------------
          2 ELECTRON INTEGRALS
          --------------------

 THE -PK- OPTION IS OFF, THE INTEGRALS ARE NOT IN SUPERMATRIX FORM.
 STORING   15000 INTEGRALS/RECORD ON DISK, USING 12 BYTES/INTEGRAL.
 TWO ELECTRON INTEGRAL EVALUATION REQUIRES   90606 WORDS OF MEMORY.
 SCHWARZ INEQUALITY OVERHEAD:      1275 INTEGRALS, T=        0.00
 II,JST,KST,LST =  1  1  1  1 NREC =         1 INTLOC =    1
 II,JST,KST,LST =  2  1  1  1 NREC =         1 INTLOC =    2
 II,JST,KST,LST =  3  1  1  1 NREC =         1 INTLOC =   34
 II,JST,KST,LST =  4  1  1  1 NREC =         1 INTLOC =  214
 II,JST,KST,LST =  5  1  1  1 NREC =         1 INTLOC = 1189
 II,JST,KST,LST =  6  1  1  1 NREC =         1 INTLOC = 2365
 II,JST,KST,LST =  7  1  1  1 NREC =         1 INTLOC = 9260
 II,JST,KST,LST =  8  1  1  1 NREC =         2 INTLOC = 6299
 II,JST,KST,LST =  9  1  1  1 NREC =         4 INTLOC = 7026
 II,JST,KST,LST = 10  1  1  1 NREC =         5 INTLOC =  392
 II,JST,KST,LST = 11  1  1  1 NREC =         5 INTLOC = 9688
 II,JST,KST,LST = 12  1  1  1 NREC =         7 INTLOC =10456
 II,JST,KST,LST = 13  1  1  1 NREC =         8 INTLOC = 7971
 II,JST,KST,LST = 14  1  1  1 NREC =         9 INTLOC = 7370
 II,JST,KST,LST = 15  1  1  1 NREC =        12 INTLOC = 3493
 II,JST,KST,LST = 16  1  1  1 NREC =        14 INTLOC = 6271
 II,JST,KST,LST = 17  1  1  1 NREC =        16 INTLOC =11527
 II,JST,KST,LST = 18  1  1  1 NREC =        24 INTLOC =10721
 II,JST,KST,LST = 19  1  1  1 NREC =        27 INTLOC =10692
 II,JST,KST,LST = 20  1  1  1 NREC =        30 INTLOC =14240
 SCHWARZ INEQUALITY TEST SKIPPED         562 INTEGRAL BLOCKS.
 TOTAL NUMBER OF NONZERO TWO-ELECTRON INTEGRALS =              605242
         41 INTEGRAL RECORDS WERE STORED ON DISK FILE  8.
  ...... END OF TWO-ELECTRON INTEGRALS .....
 STEP CPU TIME =     0.06 TOTAL CPU TIME =        0.1 (    0.0 MIN)
 TOTAL WALL CLOCK TIME=        0.1 SECONDS, CPU UTILIZATION IS  87.50%

          ---------------------------
                  UHF SCF CALCULATION
          ---------------------------

     NUCLEAR ENERGY =        44.4084353222
     MAXIT =200     NPUNCH=  2     MULT=  1
     EXTRAP=T  DAMP=F  SHIFT=F  RSTRCT=F  DIIS=F  SOSCF=T
     DENSITY MATRIX CONV=  1.00E-05
     SOSCF WILL OPTIMIZE     369 ALPHA AND     369 BETA ROTATION ANGLES.
     SOGTOL= 2.500E-01
     MEMORY REQUIRED FOR UHF/ROHF ITERS=     60966 WORDS.

 ITER EX      TOTAL ENERGY        E CHANGE  DENSITY CHANGE    ORB. GRAD 
   1  0     -113.6776779267  -113.6776779267   0.403473560   0.000000000
          ---------------START SECOND ORDER SCF---------------
   2  1     -114.2740531599    -0.5963752332   0.396144600   0.090668178
   3  2     -114.3419732316    -0.0679200717   0.085334321   0.077778294
   4  3     -114.4043564509    -0.0623832193   0.031739908   0.010143919
   5  4     -114.4070429311    -0.0026864802   0.058337786   0.005646607
   6  5     -114.4087779023    -0.0017349712   0.072686394   0.004770181
   7  6     -114.4099260462    -0.0011481439   0.084879807   0.004468845
   8  7     -114.4108041132    -0.0008780669   0.029901062   0.003742718
   9  8     -114.4112037696    -0.0003996564   0.018882054   0.001850831
  10  9     -114.4113754036    -0.0001716341   0.013755339   0.001477124
  11 10     -114.4114497105    -0.0000743069   0.011377736   0.000911330
  12 11     -114.4114847755    -0.0000350650   0.002939707   0.000474621
  13 12     -114.4114933166    -0.0000085411   0.001907446   0.000257313
  14 13     -114.4114953996    -0.0000020830   0.000710625   0.000128578
  15 14     -114.4114959415    -0.0000005419   0.000503087   0.000055710
  16 15     -114.4114960841    -0.0000001426   0.000208448   0.000034445
  17 16     -114.4114961129    -0.0000000288   0.000078571   0.000013740
  18 17     -114.4114961183    -0.0000000053   0.000037992   0.000008743
  19 18     -114.4114961193    -0.0000000010   0.000011162   0.000003843
  20 19     -114.4114961194    -0.0000000002   0.000002561   0.000001185
  21 20     -114.4114961195    -0.0000000000   0.000001327   0.000000388

          -----------------
          DENSITY CONVERGED
          -----------------
     TIME TO FORM FOCK OPERATORS=       0.3 SECONDS (       0.0 SEC/ITER)
     TIME TO SOLVE SCF EQUATIONS=       0.0 SECONDS (       0.0 SEC/ITER)

 FINAL UHF ENERGY IS     -114.4114961195 AFTER  21 ITERATIONS

          --------------------
          SPIN SZ   =    0.000
          S-SQUARED =   -0.000
          --------------------

  ----- ALPHA SET ----- 

          ------------
          EIGENVECTORS
          ------------

                      1          2          3          4          5
                  -20.6652   -11.3991    -1.6260    -0.9199    -0.7920
                     A          A          A          A          A   
    1  C  1  S   -0.000023   0.995685  -0.130129   0.112498   0.000384
    2  C  1  S   -0.000309   0.027261   0.235854  -0.242296   0.000218
    3  C  1  X   -0.000577   0.003874   0.233049  -0.144523   0.000537
    4  C  1  Y   -0.000078  -0.000432   0.000738   0.002463   0.203403
    5  C  1  Z   -0.000175   0.000649   0.050185   0.003486   0.235357
    6  C  1  S   -0.001784  -0.001448   0.061201  -0.134624  -0.031275
    7  C  1  X   -0.000964   0.001971  -0.017532   0.000161  -0.006735
    8  C  1  Y   -0.000014   0.000263  -0.001688   0.003012   0.041813
    9  C  1  Z   -0.000260   0.000831  -0.014140   0.000558   0.048703
   10  C  1 XX   -0.000677  -0.000175   0.032794  -0.017099  -0.008120
   11  C  1 YY    0.000127  -0.002671  -0.024723   0.017022  -0.004857
   12  C  1 ZZ    0.000045  -0.002501  -0.022135   0.015620   0.005818
   13  C  1 XY   -0.000076  -0.000131   0.000565  -0.000614   0.024960
   14  C  1 XZ   -0.000282   0.000752   0.014382  -0.003935   0.025296
   15  C  1 YZ   -0.000046   0.000180   0.000305  -0.004549   0.003945
   16  O  2  S    0.994344  -0.001372  -0.204732  -0.079818   0.019366
   17  O  2  S    0.021889   0.000636   0.436217   0.194414  -0.054998
   18  O  2  X   -0.001525  -0.001021  -0.176523   0.441072  -0.161786
   19  O  2  Y    0.000460   0.000155   0.007520  -0.020272   0.322021
   20  O  2  Z    0.000079  -0.000215  -0.020320   0.151707   0.352148
   21  O  2  S    0.007232  -0.005112   0.304634   0.343481  -0.058817
   22  O  2  X   -0.000797   0.004410   0.001111   0.196979  -0.092489
   23  O  2  Y   -0.000179  -0.000029   0.005842  -0.005724   0.188247
   24  O  2  Z   -0.000256   0.000992   0.020148   0.085514   0.207587
   25  O  2 XX   -0.003855   0.000122   0.024960   0.001173   0.003034
   26  O  2 YY   -0.004720  -0.000281  -0.004438   0.005812  -0.002085
   27  O  2 ZZ   -0.004753  -0.000154  -0.000242   0.016149  -0.005237
   28  O  2 XY   -0.000131  -0.000105  -0.002322   0.003909  -0.016915
   29  O  2 XZ    0.000018   0.000321   0.008511   0.010083  -0.017045
   30  O  2 YZ    0.000047  -0.000116  -0.001374   0.002075   0.005877
   31  H  3  S    0.000179  -0.000538   0.024344   0.178557   0.030665
   32  H  3  S   -0.000205  -0.000767  -0.006550   0.095518   0.023083
   33  H  3  X   -0.000136   0.000095  -0.003496  -0.019507  -0.006670
   34  H  3  Y    0.000031   0.000009   0.000234   0.000483   0.004886
   35  H  3  Z   -0.000053   0.000360  -0.000395  -0.017848   0.001660
   36  H  4  S    0.000018   0.000034   0.005306  -0.034970  -0.041262
   37  H  4  S   -0.000083   0.000870  -0.011963  -0.016423  -0.020818
   38  H  4  X    0.000050  -0.000266   0.002273  -0.005158  -0.004879
   39  H  4  Y   -0.000007   0.000028  -0.000051   0.000725   0.002894
   40  H  4  Z    0.000040  -0.000218   0.001487  -0.003656  -0.001723
   41  H  5  S   -0.000029  -0.000063   0.018798  -0.021634   0.096812
   42  H  5  S    0.000082   0.000432   0.001668  -0.007739   0.074569
   43  H  5  X    0.000025   0.000028   0.000922  -0.000653   0.002795
   44  H  5  Y   -0.000025   0.000173  -0.002363   0.003604  -0.005655
   45  H  5  Z   -0.000025   0.000183  -0.001998   0.003065  -0.004296
   46  H  6  S   -0.000035   0.000068   0.011987  -0.039976  -0.088603
   47  H  6  S   -0.000041   0.000530  -0.000105  -0.020743  -0.065831
   48  H  6  X   -0.000041   0.000033   0.000154   0.001493   0.001004
   49  H  6  Y   -0.000040  -0.000199   0.002218  -0.003880  -0.004545
   50  H  6  Z   -0.000051  -0.000156   0.002125  -0.003072  -0.003555

                      6          7          8          9         10
                   -0.7222    -0.6871    -0.3518    -0.2102     0.0174
                     A          A          A          A          A   
    1  C  1  S   -0.006855   0.103093  -0.021373   0.017114  -0.042841
    2  C  1  S    0.008282  -0.201432   0.033493  -0.055800   0.057731
    3  C  1  X   -0.055471   0.348841  -0.146537   0.036954   0.094802
    4  C  1  Y    0.234051   0.024843   0.129269  -0.166380   0.062854
    5  C  1  Z   -0.204257   0.044356   0.176587   0.051566  -0.088475
    6  C  1  S    0.043460  -0.337133   0.181728  -0.063159  -0.017293
    7  C  1  X   -0.006848   0.095539  -0.040476   0.097790  -0.053604
    8  C  1  Y    0.051590   0.015352   0.153489  -0.211674   0.072890
    9  C  1  Z   -0.058473   0.033418   0.223772   0.080873  -0.115325
   10  C  1 XX    0.008360   0.026841  -0.005323  -0.030090   0.000714
   11  C  1 YY    0.003205  -0.013974   0.006631   0.029867  -0.007407
   12  C  1 ZZ   -0.002584  -0.028842   0.001401   0.009732  -0.007307
   13  C  1 XY    0.037216   0.005118  -0.020248   0.004795  -0.008402
   14  C  1 XZ   -0.025961  -0.015403  -0.026071  -0.029436  -0.011248
   15  C  1 YZ    0.008842  -0.011569   0.000028   0.033615  -0.007385
   16  O  2  S   -0.008653  -0.034335  -0.003694   0.039023   0.069046
   17  O  2  S    0.019540   0.075705   0.008533  -0.087739  -0.113806
   18  O  2  X    0.161155  -0.130058   0.164076   0.035068  -0.191452
   19  O  2  Y    0.419189   0.047095  -0.268926   0.129104  -0.106940
   20  O  2  Z   -0.307673  -0.178168  -0.265329  -0.077834  -0.150605
   21  O  2  S    0.053860   0.073604   0.010925  -0.283979  -0.522395
   22  O  2  X    0.085667  -0.039122   0.134695   0.008811  -0.314530
   23  O  2  Y    0.269585   0.030411  -0.261086   0.172958  -0.127504
   24  O  2  Z   -0.198349  -0.116495  -0.276782  -0.109684  -0.215535
   25  O  2 XX   -0.009723   0.002161  -0.005599   0.003711   0.041569
   26  O  2 YY    0.009536  -0.003643   0.005484   0.006878   0.007092
   27  O  2 ZZ    0.001902  -0.007951  -0.005569   0.003173   0.016802
   28  O  2 XY   -0.022809  -0.005163  -0.000848   0.002932   0.000339
   29  O  2 XZ    0.019361   0.002498  -0.010309   0.001328   0.023190
   30  O  2 YZ    0.000108  -0.003375  -0.003836   0.013356  -0.003187
   31  H  3  S   -0.008192  -0.071581  -0.097956   0.039481   0.262989
   32  H  3  S    0.004158  -0.064127  -0.150085   0.178892   1.017358
   33  H  3  X    0.005105   0.007165   0.004693   0.001080   0.011691
   34  H  3  Y    0.006085   0.000491  -0.005929   0.005420  -0.002561
   35  H  3  Z   -0.002332   0.004910  -0.004371   0.000675   0.009797
   36  H  4  S    0.055833  -0.175522  -0.072745  -0.199401  -0.003601
   37  H  4  S    0.048048  -0.131314  -0.078411  -0.471723  -0.022101
   38  H  4  X    0.004828  -0.011837  -0.005393  -0.003687   0.001424
   39  H  4  Y    0.001490   0.002338   0.006403  -0.009248   0.005032
   40  H  4  Z    0.003313  -0.010432   0.002479  -0.008963   0.000084
   41  H  5  S    0.024931  -0.087904   0.213861   0.151531   0.012257
   42  H  5  S    0.028239  -0.089808   0.322546   0.427987   0.068472
   43  H  5  X    0.001616   0.002535  -0.003802   0.002986  -0.001193
   44  H  5  Y    0.001171   0.007270  -0.009745  -0.005048  -0.000245
   45  H  5  Z   -0.003926   0.004928  -0.008670  -0.002859  -0.001342
   46  H  6  S    0.005905  -0.111326  -0.149336   0.226277  -0.074513
   47  H  6  S   -0.004010  -0.074988  -0.199891   0.588661  -0.244127
   48  H  6  X   -0.000381   0.005490   0.004272   0.002545   0.003651
   49  H  6  Y    0.002662  -0.009240  -0.009097   0.005900  -0.000987
   50  H  6  Z   -0.001638  -0.006534  -0.005380   0.010437  -0.002351

                     11         12         13         14         15
                    0.1255     0.2296     0.2894     0.4739     0.7114
                     A          A          A          A          A   
    1  C  1  S   -0.110379   0.058147   0.015057   0.009779   0.003247
    2  C  1  S    0.168858  -0.099461  -0.017354   0.056108  -0.225695
    3  C  1  X   -0.226374   0.084582  -0.007094  -0.032380   0.133584
    4  C  1  Y   -0.130919  -0.271300   0.350131   0.116094   0.681123
    5  C  1  Z    0.119909   0.245234   0.346806  -0.091476  -0.699011
    6  C  1  S    0.870371  -0.820488  -0.083457  -3.104079   0.527368
    7  C  1  X   -0.368306  -0.043068   0.119277  -2.765643   0.305657
    8  C  1  Y   -0.217666  -0.545861   0.925853   0.025253  -0.748565
    9  C  1  Z    0.172879   0.555805   1.062476  -0.719506   0.873543
   10  C  1 XX   -0.013947   0.019892   0.002323  -0.003143  -0.009760
   11  C  1 YY   -0.002160  -0.009947   0.000303   0.025178  -0.029664
   12  C  1 ZZ   -0.012516  -0.004898  -0.000433   0.012039  -0.020295
   13  C  1 XY    0.013691   0.001341   0.011113  -0.002586   0.017331
   14  C  1 XZ   -0.009641   0.004606   0.007295  -0.010667  -0.002536
   15  C  1 YZ   -0.010438  -0.006684   0.001708   0.020802  -0.016437
   16  O  2  S    0.005788  -0.012365   0.009013  -0.098278   0.006511
   17  O  2  S   -0.022731   0.029750   0.006723  -0.027325   0.043281
   18  O  2  X    0.048743  -0.029664  -0.012484  -0.052925   0.046270
   19  O  2  Y    0.179943   0.144912  -0.057508  -0.026901   0.057690
   20  O  2  Z   -0.083584  -0.212795  -0.083250  -0.012755  -0.021480
   21  O  2  S    0.037894   0.128980  -0.281982   3.382283  -0.512762
   22  O  2  X    0.042821  -0.097964   0.050882  -0.998947  -0.015796
   23  O  2  Y    0.246695   0.297679  -0.262500  -0.085252  -0.038374
   24  O  2  Z   -0.143423  -0.422937  -0.322434  -0.194656   0.013654
   25  O  2 XX    0.004365   0.008470   0.014592   0.007757  -0.035295
   26  O  2 YY   -0.003850   0.000955   0.004794  -0.096650   0.027369
   27  O  2 ZZ   -0.009248  -0.010015  -0.000772  -0.086150   0.055290
   28  O  2 XY    0.007440   0.012376  -0.016821  -0.012172  -0.078849
   29  O  2 XZ    0.000532  -0.009032  -0.013365   0.043828   0.051823
   30  O  2 YZ   -0.004895   0.004971  -0.006949   0.017103  -0.031407
   31  H  3  S    0.034641  -0.032769   0.009184   0.122520  -0.128745
   32  H  3  S    0.124363   0.265488   0.243823   0.178113   0.044686
   33  H  3  X    0.005727   0.005930   0.008869   0.002174  -0.030450
   34  H  3  Y    0.004335   0.010026  -0.012294   0.001459  -0.024740
   35  H  3  Z   -0.003974  -0.002332  -0.005417  -0.007314   0.013772
   36  H  4  S   -0.114132   0.116128  -0.031256   0.018465   0.003219
   37  H  4  S   -0.592548   0.998997   0.298835  -1.040243   0.338409
   38  H  4  X   -0.004258  -0.008814  -0.004268  -0.012428   0.011453
   39  H  4  Y   -0.001451  -0.007199   0.004613  -0.009895   0.001262
   40  H  4  Z    0.007099   0.000745   0.000513   0.002596   0.015792
   41  H  5  S   -0.143104   0.002561  -0.021294   0.012750  -0.027674
   42  H  5  S   -0.655629   0.270990  -1.096557   0.640873  -0.084889
   43  H  5  X   -0.006310   0.002738  -0.006242  -0.008378   0.004525
   44  H  5  Y   -0.002530  -0.002771  -0.001288  -0.009005   0.002371
   45  H  5  Z    0.000512   0.007688  -0.002693  -0.015873   0.015857
   46  H  6  S   -0.056613  -0.061382   0.035083   0.065300  -0.063399
   47  H  6  S   -0.253994  -0.222862   1.197222   0.681846  -0.133301
   48  H  6  X   -0.000822  -0.003100   0.004364   0.005466  -0.005302
   49  H  6  Y   -0.003443  -0.004586  -0.001461   0.008313  -0.007642
   50  H  6  Z    0.006067   0.001099  -0.000108   0.013353  -0.005704

                     16         17         18         19         20
                    0.7543     0.8765     0.8948     0.9842     1.0069
                     A          A          A          A          A   
    1  C  1  S   -0.000192  -0.015131   0.032678   0.002771   0.049665
    2  C  1  S   -0.148742  -0.413926  -0.467333  -0.943001  -0.075206
    3  C  1  X   -0.395756   0.221598   0.452232   0.435129   0.081021
    4  C  1  Y    0.082316  -0.558682   0.333952  -0.132003  -0.274431
    5  C  1  Z    0.103535  -0.467781   0.465554   0.012190  -0.228997
    6  C  1  S   -0.973011   0.681138   2.142686   1.635857   0.679110
    7  C  1  X   -0.374115  -0.246956  -0.121008  -0.657628  -0.011572
    8  C  1  Y   -0.169032   1.288009  -0.732903   0.264637   0.604744
    9  C  1  Z   -0.491253   1.088593  -0.980526  -0.089608   0.543825
   10  C  1 XX    0.027998  -0.052121  -0.003469  -0.144076   0.128305
   11  C  1 YY   -0.026315  -0.048031  -0.110882   0.012036  -0.114371
   12  C  1 ZZ   -0.002852  -0.100064  -0.105768   0.012435  -0.015116
   13  C  1 XY    0.000282   0.002289   0.010606  -0.013625  -0.010419
   14  C  1 XZ    0.050343  -0.024223   0.063272  -0.000942   0.135819
   15  C  1 YZ   -0.013071  -0.088207  -0.087958   0.137413  -0.044682
   16  O  2  S   -0.043014  -0.000292   0.018704  -0.001999  -0.014637
   17  O  2  S    0.192828   0.078846  -0.040627   0.060414  -0.137461
   18  O  2  X    0.108850  -0.036690  -0.267026   0.119123  -0.198398
   19  O  2  Y   -0.008114   0.053125   0.060908  -0.041500  -0.074709
   20  O  2  Z    0.173662   0.215606   0.159749   0.041834  -0.068584
   21  O  2  S    0.433815  -0.322807  -0.777481  -0.007478  -0.052583
   22  O  2  X   -0.853665   0.029796   0.988540  -0.212634   0.473280
   23  O  2  Y    0.005036  -0.169837  -0.057785   0.040957   0.148186
   24  O  2  Z   -0.337617  -0.269960   0.067280  -0.038589   0.133538
   25  O  2 XX   -0.024409  -0.047100  -0.074455   0.048024  -0.163461
   26  O  2 YY    0.087566   0.031781  -0.000010   0.021967  -0.016221
   27  O  2 ZZ    0.006890   0.044523  -0.026383  -0.004547  -0.026119
   28  O  2 XY   -0.010417   0.100383  -0.020338  -0.010741   0.031282
   29  O  2 XZ   -0.124200   0.053487  -0.042182  -0.015654  -0.020895
   30  O  2 YZ   -0.003241  -0.030240  -0.058605   0.028840   0.016264
   31  H  3  S   -0.947707  -0.214148   0.020970  -0.204421  -0.038217
   32  H  3  S    1.325156   0.251587  -0.317645   0.408144  -0.158371
   33  H  3  X   -0.041598  -0.034847   0.028553   0.008047   0.032122
   34  H  3  Y    0.001316   0.013060  -0.006719  -0.014390   0.014805
   35  H  3  Z   -0.021502  -0.000720  -0.004857  -0.018574   0.020495
   36  H  4  S    0.138992  -0.469809   0.178441   0.172688   0.833659
   37  H  4  S   -0.340414   0.277375  -0.819870  -0.524972  -1.130984
   38  H  4  X    0.012482  -0.021972  -0.044025  -0.018923   0.017807
   39  H  4  Y   -0.001196   0.036476   0.020719  -0.018294   0.003753
   40  H  4  Z    0.016847   0.005610  -0.027742  -0.037377   0.032399
   41  H  5  S   -0.145244  -0.373055  -0.530046   0.646952   0.314860
   42  H  5  S    0.368990  -0.556954   0.910185  -1.145475  -0.730835
   43  H  5  X    0.023153  -0.026630  -0.012592   0.001254   0.025481
   44  H  5  Y   -0.010001   0.067850   0.015135  -0.006474   0.021403
   45  H  5  Z   -0.005094   0.048220   0.000238  -0.012390   0.034625
   46  H  6  S   -0.009388  -0.196685  -0.016482   0.552805  -0.637704
   47  H  6  S    0.009605   0.830320  -0.658657  -0.712114   1.238048
   48  H  6  X   -0.010017   0.035091   0.003458  -0.005996  -0.025557
   49  H  6  Y   -0.003327  -0.003046  -0.058776   0.012137   0.008604
   50  H  6  Z   -0.012944   0.021308  -0.048272   0.008483  -0.010440

                     21         22         23         24         25
                    1.1171     1.1345     1.2958     1.3156     1.4757
                     A          A          A          A          A   
    1  C  1  S    0.031189  -0.009858   0.092908   0.027896   0.022906
    2  C  1  S    0.864105  -0.064456   0.317449  -0.697384   0.470621
    3  C  1  X    0.232350   0.060668  -0.213970  -0.510588   0.446214
    4  C  1  Y    0.050847   0.226378  -0.151500   0.114625  -0.010404
    5  C  1  Z   -0.207242  -0.002419  -0.310369   0.133603   0.115493
    6  C  1  S   -0.667766   0.218356  -0.069238  -0.402732   0.859733
    7  C  1  X    0.061160  -0.054368   0.484435  -0.595807  -0.163137
    8  C  1  Y   -0.089857  -0.805382   0.699989  -0.552648  -0.191925
    9  C  1  Z    0.672477  -0.144801   1.017774  -0.892415  -1.012605
   10  C  1 XX   -0.002070  -0.017237   0.246248   0.164328   0.041262
   11  C  1 YY    0.062196   0.004310  -0.127520  -0.046706   0.176053
   12  C  1 ZZ    0.100133  -0.032153  -0.029532  -0.237722  -0.271228
   13  C  1 XY    0.002685  -0.140851  -0.046809   0.039910   0.091988
   14  C  1 XZ    0.118099  -0.012151   0.098742   0.011604  -0.004619
   15  C  1 YZ    0.102208  -0.067089   0.117058   0.062383  -0.040244
   16  O  2  S    0.009126   0.001728  -0.051417  -0.081837   0.007248
   17  O  2  S   -0.259973  -0.061354  -0.335907  -0.298113  -0.177310
   18  O  2  X   -0.263037  -0.027039  -0.426683  -0.372811  -0.099434
   19  O  2  Y    0.012837  -0.885313  -0.040785   0.045362   0.037487
   20  O  2  Z    0.599456   0.034495  -0.278278   0.090170  -0.535300
   21  O  2  S    0.161246   0.071969   0.508813   1.975402  -0.170766
   22  O  2  X    0.958660   0.054785   0.745829  -0.542552   1.058732
   23  O  2  Y   -0.020588   1.304486  -0.128941   0.023968  -0.041734
   24  O  2  Z   -0.746567   0.033747   0.201338  -0.090317   1.380930
   25  O  2 XX   -0.017844  -0.020281  -0.339128  -0.390884   0.006279
   26  O  2 YY   -0.098095  -0.005526  -0.092792  -0.024860   0.094472
   27  O  2 ZZ   -0.159403  -0.021550  -0.091611  -0.037434  -0.323079
   28  O  2 XY   -0.027397   0.003482   0.030976  -0.068244  -0.067208
   29  O  2 XZ   -0.012851  -0.006378  -0.072768  -0.050931  -0.078836
   30  O  2 YZ    0.051939  -0.000671   0.007986   0.048235  -0.020938
   31  H  3  S   -0.247109  -0.022282  -0.117397   0.234426  -0.623944
   32  H  3  S    0.021128  -0.016693  -0.389913  -0.123487  -0.103978
   33  H  3  X    0.064838   0.000772   0.022194   0.008973   0.018671
   34  H  3  Y   -0.007496   0.108460   0.001194  -0.024336  -0.046472
   35  H  3  Z   -0.116560   0.000234   0.047536   0.097902  -0.063177
   36  H  4  S   -0.156041  -0.199156   0.176679  -0.592467  -0.400349
   37  H  4  S    0.552703   0.125055   0.341590   0.199453  -0.188111
   38  H  4  X    0.016445  -0.010331   0.043541  -0.067986   0.016508
   39  H  4  Y   -0.024794  -0.018968  -0.020489   0.000189  -0.011304
   40  H  4  Z    0.022118  -0.001726   0.070132   0.052925   0.014169
   41  H  5  S    0.338040  -0.053923  -0.336562   0.519736   0.224809
   42  H  5  S   -0.156314   0.054308  -0.265901  -0.062512  -0.010258
   43  H  5  X   -0.004447   0.039635   0.019300   0.051528   0.092185
   44  H  5  Y   -0.018657   0.002791  -0.013234   0.036985   0.048884
   45  H  5  Z   -0.025498  -0.017585   0.028935  -0.015410  -0.058273
   46  H  6  S    0.030234  -0.032474   0.868048  -0.241672  -0.259890
   47  H  6  S   -0.003627  -0.194024  -0.231084  -0.368935  -0.068185
   48  H  6  X    0.007704  -0.039128  -0.023840   0.036429  -0.113499
   49  H  6  Y    0.051301  -0.032360   0.034647  -0.054931  -0.072123
   50  H  6  Z    0.046571  -0.033635  -0.004310   0.011917   0.011277

                     26         27         28         29         30
                    1.5750     1.6397     1.7371     1.8289     1.8823
                     A          A          A          A          A   
    1  C  1  S   -0.049165  -0.009302  -0.024389  -0.029483  -0.020603
    2  C  1  S   -0.155047  -0.016900  -0.098668   0.271877  -0.273338
    3  C  1  X    0.048372   0.263801  -0.041912  -0.029096  -0.004609
    4  C  1  Y    0.008582   0.022530  -0.302969   0.140499   0.126002
    5  C  1  Z    0.020485   0.152332  -0.055924   0.143581  -0.172580
    6  C  1  S   -2.400202  -0.689127  -1.721626  -1.614808  -1.618469
    7  C  1  X   -1.522135  -1.096711  -0.956319  -1.005310  -1.081336
    8  C  1  Y    0.138559  -0.139839   0.317902  -0.251831  -0.059440
    9  C  1  Z   -0.314287  -0.880606   0.095113  -0.605272  -0.267802
   10  C  1 XX   -0.165034  -0.054767  -0.143656   0.014337  -0.251369
   11  C  1 YY    0.354660  -0.399781   0.084049  -0.003738   0.071666
   12  C  1 ZZ   -0.147335   0.409824   0.112382  -0.007042   0.245284
   13  C  1 XY   -0.096825   0.009030   0.368034  -0.142809  -0.151925
   14  C  1 XZ   -0.070511  -0.183039   0.026914  -0.224939   0.344876
   15  C  1 YZ    0.148884   0.107295  -0.083723  -0.328454  -0.263694
   16  O  2  S   -0.051920  -0.024780  -0.032243  -0.042516  -0.041970
   17  O  2  S   -1.229404  -0.694181  -0.665322  -0.748117  -0.561503
   18  O  2  X    0.151728  -0.017009   0.089060  -0.040686   0.147031
   19  O  2  Y    0.042641   0.021873  -0.202275   0.096289   0.155883
   20  O  2  Z    0.045642  -0.170920   0.094250   0.036358  -0.123764
   21  O  2  S    4.186441   2.180099   2.543975   2.681481   2.587575
   22  O  2  X   -1.103435  -0.074275  -0.789602  -0.423017  -0.856275
   23  O  2  Y   -0.096865  -0.031461   0.066144   0.049904  -0.125609
   24  O  2  Z   -0.214954   0.459603  -0.412010   0.074707  -0.154935
   25  O  2 XX   -0.344369  -0.178920  -0.173498  -0.214301  -0.014465
   26  O  2 YY   -0.103428  -0.513417  -0.143698  -0.308022  -0.086011
   27  O  2 ZZ   -0.394351   0.180051  -0.100853  -0.059316  -0.242297
   28  O  2 XY    0.010757  -0.047305  -0.313840   0.235610   0.202215
   29  O  2 XZ    0.082810  -0.128350  -0.043140   0.124401  -0.372901
   30  O  2 YZ    0.243432   0.185801  -0.408636  -0.375393  -0.063098
   31  H  3  S   -0.025926  -0.320947   0.123355  -0.285005   0.265137
   32  H  3  S   -0.001998  -0.008114   0.004717   0.121417  -0.117380
   33  H  3  X   -0.052202  -0.115158   0.008036  -0.178328   0.267175
   34  H  3  Y    0.077957   0.034240  -0.332807  -0.008937   0.093815
   35  H  3  Z    0.055093   0.062186   0.058929   0.012208   0.038509
   36  H  4  S    0.250418  -0.280983   0.100000   0.085885  -0.241176
   37  H  4  S   -0.414659  -0.348269  -0.179128  -0.258026  -0.029442
   38  H  4  X   -0.169859   0.068727  -0.001350  -0.170723   0.132295
   39  H  4  Y    0.029671  -0.033823  -0.188965   0.138889   0.118384
   40  H  4  Z    0.007905  -0.012822   0.003253   0.015053   0.116568
   41  H  5  S   -0.304550   0.000739  -0.116891   0.424599   0.060670
   42  H  5  S    0.304299   0.181869   0.099760   0.008327   0.164557
   43  H  5  X    0.086096   0.057854   0.088597  -0.123266   0.096850
   44  H  5  Y   -0.034548  -0.196259   0.022104   0.128470  -0.020996
   45  H  5  Z   -0.162675   0.065355  -0.019308   0.137640   0.077993
   46  H  6  S   -0.071612  -0.283351   0.084644   0.213933   0.032551
   47  H  6  S    0.311835   0.087174   0.289615  -0.106981   0.081277
   48  H  6  X    0.141093   0.018537  -0.177616   0.136985  -0.013588
   49  H  6  Y   -0.017449   0.143450   0.039799  -0.155857  -0.030417
   50  H  6  Z    0.157627  -0.066169  -0.020786  -0.074147  -0.027997

                     31         32         33         34         35
                    2.0388     2.1234     2.2388     2.3419     2.3928
                     A          A          A          A          A   
    1  C  1  S    0.039681  -0.015975   0.003755   0.037184   0.022199
    2  C  1  S   -0.018886  -0.276958   0.182423   0.501629  -0.118244
    3  C  1  X    0.001173  -0.144500   0.007048   0.183257  -0.241748
    4  C  1  Y    0.196923   0.001862  -0.004223  -0.062098   0.017077
    5  C  1  Z    0.083300   0.024478  -0.044187   0.051755  -0.172524
    6  C  1  S   -0.331801  -0.772044  -0.205388   0.105825  -0.443119
    7  C  1  X   -0.196219  -0.619057  -0.102110  -0.073279  -0.555906
    8  C  1  Y   -0.049450  -0.039004   0.450312  -0.232621  -0.102995
    9  C  1  Z   -0.106208  -0.280076   0.348694   0.188638  -0.273498
   10  C  1 XX   -0.115398   0.046420  -0.092508  -0.161791  -0.181712
   11  C  1 YY    0.096448  -0.329617   0.114293  -0.017460   0.279931
   12  C  1 ZZ    0.074162   0.336411  -0.035822   0.098097  -0.058026
   13  C  1 XY   -0.133797   0.034295   0.441092  -0.162135  -0.139959
   14  C  1 XZ   -0.003478  -0.321511  -0.010510   0.042087  -0.296794
   15  C  1 YZ    0.263993  -0.126160  -0.326466  -0.150949  -0.139572
   16  O  2  S   -0.005973  -0.021627  -0.000799   0.009667   0.003329
   17  O  2  S   -0.092487  -0.298808  -0.076444   0.149572   0.052041
   18  O  2  X   -0.099101  -0.031224  -0.039395  -0.077868  -0.285965
   19  O  2  Y    0.072403   0.008542   0.047933  -0.024974   0.054506
   20  O  2  Z   -0.042618   0.039110   0.075350   0.081159  -0.020535
   21  O  2  S    0.511931   1.450550   0.287084  -0.376704   0.800990
   22  O  2  X    0.033051  -0.544374   0.053303   0.609420  -0.138239
   23  O  2  Y   -0.081642  -0.024575  -0.514132   0.286047   0.050432
   24  O  2  Z    0.028223   0.047874  -0.227593  -0.194642   0.198190
   25  O  2 XX   -0.190883  -0.109121  -0.091083  -0.139614  -0.038317
   26  O  2 YY    0.180896   0.519489  -0.021669   0.325557  -0.206484
   27  O  2 ZZ   -0.076517  -0.555225   0.056021  -0.160321   0.350133
   28  O  2 XY    0.365332  -0.029150  -0.009915  -0.179434  -0.000962
   29  O  2 XZ    0.045283   0.215985   0.001530   0.048888  -0.218639
   30  O  2 YZ   -0.345406   0.057111   0.295867   0.207677   0.112323
   31  H  3  S   -0.023959   0.023210   0.001883  -0.002667  -0.041036
   32  H  3  S   -0.035796   0.017935   0.007599  -0.094380  -0.013538
   33  H  3  X   -0.076283   0.284405  -0.109647  -0.324067   0.305315
   34  H  3  Y    0.080675   0.021293   0.672014  -0.324062  -0.169915
   35  H  3  Z    0.139216  -0.299897   0.172534   0.587129  -0.306382
   36  H  4  S   -0.053129  -0.014056   0.101651  -0.004976   0.082490
   37  H  4  S   -0.027037  -0.164044   0.004897   0.052755  -0.326588
   38  H  4  X    0.204128   0.090571   0.064584   0.312880   0.145121
   39  H  4  Y   -0.356965  -0.018069  -0.190335   0.339987   0.098526
   40  H  4  Z   -0.147105  -0.114944  -0.123251  -0.278950  -0.624467
   41  H  5  S   -0.025429   0.041347   0.105815   0.093344   0.028445
   42  H  5  S    0.084672   0.053204  -0.250061  -0.031528   0.083756
   43  H  5  X   -0.356880   0.077147  -0.012887  -0.014013   0.096342
   44  H  5  Y    0.010093  -0.072427   0.181221  -0.018144   0.102423
   45  H  5  Z   -0.127770   0.132937  -0.007382   0.049452  -0.143896
   46  H  6  S   -0.176914   0.037370   0.261448   0.062728   0.001758
   47  H  6  S    0.099965  -0.006048  -0.028723  -0.071387   0.014332
   48  H  6  X   -0.262145   0.110040  -0.212633   0.002571  -0.189734
   49  H  6  Y    0.284934   0.193814   0.012939   0.001078  -0.089260
   50  H  6  Z    0.012870  -0.263338  -0.170807  -0.087880   0.088359

                     36         37         38         39         40
                    2.4118     2.4871     2.5616     2.6259     2.7324
                     A          A          A          A          A   
    1  C  1  S   -0.036337  -0.016136   0.007620  -0.019022  -0.045292
    2  C  1  S   -0.012415  -0.042886   0.586801  -0.355906  -0.021364
    3  C  1  X    0.060499   0.006402   0.294784  -0.221682   0.067289
    4  C  1  Y    0.071619   0.011632   0.046399  -0.032092   0.034363
    5  C  1  Z   -0.009183   0.101892  -0.274792  -0.025599   0.092260
    6  C  1  S    0.338694   0.252751   1.109357  -0.469780  -0.003650
    7  C  1  X    0.228548   0.179534   0.129323  -0.393607  -0.115408
    8  C  1  Y   -0.054463   0.256911  -0.052910  -0.007696   0.562132
    9  C  1  Z    0.361689   0.044534  -0.552082   0.080753   0.558536
   10  C  1 XX    0.103939   0.007789   0.096054  -0.093583   0.214060
   11  C  1 YY   -0.038084   0.135306  -0.064228   0.535982  -0.174046
   12  C  1 ZZ   -0.138907  -0.156247  -0.264399  -0.399196  -0.153774
   13  C  1 XY   -0.228458  -0.148943   0.045897   0.036219  -0.130576
   14  C  1 XZ    0.061269   0.046156  -0.448988   0.250513  -0.019066
   15  C  1 YZ   -0.156470  -0.205399   0.082570  -0.005942   0.199570
   16  O  2  S    0.000257   0.008397  -0.029241   0.008469  -0.018078
   17  O  2  S   -0.027846  -0.027950   0.225151  -0.026029  -0.121345
   18  O  2  X    0.131138   0.052454  -0.014600  -0.099773   0.162476
   19  O  2  Y    0.092264   0.083942  -0.024022  -0.041795   0.097123
   20  O  2  Z    0.062308   0.086012   0.048538  -0.061186   0.151127
   21  O  2  S   -0.363140  -0.228941  -0.593942   0.513230   0.126347
   22  O  2  X   -0.048983  -0.067115   0.947877  -0.454849  -0.140504
   23  O  2  Y    0.054428  -0.082759   0.004545   0.060437  -0.286079
   24  O  2  Z   -0.201822  -0.187878   0.913298  -0.288694  -0.368101
   25  O  2 XX    0.089439  -0.045865   0.050703   0.130130   0.090950
   26  O  2 YY   -0.153139   0.027364  -0.081173  -0.193014  -0.086943
   27  O  2 ZZ    0.040667   0.049511  -0.200010   0.185736  -0.137362
   28  O  2 XY    0.093796   0.070829   0.065882  -0.058882   0.042940
   29  O  2 XZ    0.013989   0.134728  -0.546999   0.004233   0.104800
   30  O  2 YZ    0.259356   0.321960  -0.055284  -0.113970  -0.307348
   31  H  3  S    0.039886   0.024685  -0.097263   0.042297   0.056327
   32  H  3  S    0.040018   0.062114  -0.451007   0.204084   0.053421
   33  H  3  X   -0.079395  -0.037350   0.357255  -0.197322  -0.100538
   34  H  3  Y   -0.353100  -0.241467  -0.003606   0.057997   0.241383
   35  H  3  Z    0.025025  -0.041991   0.490255  -0.211627   0.119520
   36  H  4  S    0.023576   0.037605   0.029830   0.016000   0.065000
   37  H  4  S    0.138530  -0.007851  -0.419312  -0.086764  -0.005419
   38  H  4  X   -0.028439  -0.070268  -0.457525   0.140260   0.238247
   39  H  4  Y   -0.363365  -0.392330  -0.199569   0.069330  -0.056358
   40  H  4  Z    0.140065   0.093995  -0.215730  -0.181255  -0.159066
   41  H  5  S    0.005849   0.012267   0.044604  -0.003798  -0.049282
   42  H  5  S   -0.153662  -0.143171   0.002953   0.009537  -0.352495
   43  H  5  X    0.284024   0.013263  -0.003515   0.019472   0.702055
   44  H  5  Y    0.440729  -0.379644  -0.110944  -0.315178   0.208033
   45  H  5  Z   -0.259442   0.530086   0.179498   0.285574   0.339639
   46  H  6  S    0.094335   0.093731  -0.110876  -0.010224   0.044806
   47  H  6  S   -0.118565  -0.078469  -0.060735   0.100979   0.345358
   48  H  6  X    0.039601  -0.414176   0.220310   0.346094  -0.051272
   49  H  6  Y    0.275695  -0.174068   0.073900   0.444281   0.129154
   50  H  6  Z   -0.382197   0.077847  -0.093992  -0.353050   0.371316

                     41         42         43         44         45
                    2.8227     2.9362     3.0008     3.1242     3.2066
                     A          A          A          A          A   
    1  C  1  S   -0.013007   0.069163  -0.026230  -0.052429   0.250244
    2  C  1  S   -0.466577   0.289634  -0.593896  -0.154655   0.323965
    3  C  1  X   -0.395046   0.154897  -0.596079  -0.097310   0.212790
    4  C  1  Y    0.055209   0.068873  -0.024857   0.555496   0.109281
    5  C  1  Z   -0.069761   0.213567  -0.206501  -0.074085   0.211364
    6  C  1  S   -0.419713  -0.033620   0.283984  -0.222966  -0.090601
    7  C  1  X   -0.415395   0.176982  -0.073589  -0.124535   0.342590
    8  C  1  Y    0.340220   0.364644  -0.071418   0.453017   0.099978
    9  C  1  Z    0.143600   0.507120  -0.146223   0.213650   0.217716
   10  C  1 XX   -0.310214  -0.125742  -0.461133   0.082946  -0.156317
   11  C  1 YY   -0.017246   0.210043   0.018754  -0.112402   0.600411
   12  C  1 ZZ    0.378141   0.070649   0.414773  -0.093608   0.445988
   13  C  1 XY    0.153868  -0.023981  -0.156219   1.089882   0.234554
   14  C  1 XZ    0.160440  -0.026700   0.012015   0.023865  -0.155445
   15  C  1 YZ   -0.242571  -0.062020  -0.071126   0.250483  -0.353504
   16  O  2  S   -0.000884  -0.013506   0.038230   0.002845  -0.029826
   17  O  2  S    0.177502   0.049745   0.691741  -0.185770   0.829684
   18  O  2  X   -0.285344  -0.006704  -0.475421   0.070407  -0.345600
   19  O  2  Y   -0.106109  -0.100877   0.101417  -0.261532   0.016904
   20  O  2  Z   -0.230925  -0.110576  -0.097559   0.038503  -0.023555
   21  O  2  S    0.590401  -0.116306  -0.644042   0.368817  -1.159163
   22  O  2  X   -0.426698   0.376421  -0.289843  -0.410569   1.402834
   23  O  2  Y    0.043201   0.179788  -0.066808  -0.541555  -0.258634
   24  O  2  Z   -0.111107   0.231589  -0.310554  -0.197192   0.166856
   25  O  2 XX    0.164929  -0.330690   0.364720   0.163739  -0.530539
   26  O  2 YY    0.078067  -0.023482   0.200549  -0.009998  -0.047026
   27  O  2 ZZ   -0.171288   0.161447  -0.173812  -0.084656   0.218566
   28  O  2 XY    0.037942  -0.159737  -0.050935   1.160279   0.304729
   29  O  2 XZ   -0.019727   0.053078  -0.072608  -0.036870   0.284201
   30  O  2 YZ    0.179333   0.170682  -0.100508   0.273729  -0.030173
   31  H  3  S    0.028669  -0.096620   0.165283   0.070101  -0.186249
   32  H  3  S    0.204247  -0.133081   0.259720   0.096900  -0.289755
   33  H  3  X   -0.280598   0.217282  -0.463897  -0.091551   0.211972
   34  H  3  Y   -0.103508  -0.060711   0.068629  -0.257517  -0.013787
   35  H  3  Z   -0.144103  -0.002965  -0.156246  -0.042517   0.204336
   36  H  4  S   -0.057470   0.104895  -0.012369   0.042233   0.077183
   37  H  4  S   -0.024714   0.001552  -0.378584  -0.072251   0.249884
   38  H  4  X   -0.013980  -0.116382  -0.639624  -0.029219   0.152667
   39  H  4  Y   -0.435459   0.281273   0.185070   0.215478  -0.053402
   40  H  4  Z   -0.231318   0.271364  -0.132575  -0.071389   0.334753
   41  H  5  S    0.015494  -0.053729   0.015807  -0.080184   0.081890
   42  H  5  S   -0.268798  -0.455549   0.130799  -0.113292   0.246258
   43  H  5  X   -0.139555  -0.229643   0.267548   0.081213   0.379818
   44  H  5  Y    0.198945   0.483129  -0.126768   0.054240  -0.370101
   45  H  5  Z    0.132226   0.423158  -0.119467   0.100822  -0.295301
   46  H  6  S    0.067352   0.023196  -0.104261   0.067058   0.100177
   47  H  6  S    0.196586   0.553200   0.120219   0.179713   0.129011
   48  H  6  X    0.517054  -0.158792  -0.350456  -0.089878   0.177440
   49  H  6  Y   -0.021036   0.597871   0.195131   0.059190   0.160588
   50  H  6  Z    0.486021   0.314083  -0.056511   0.029658   0.205709

                     46         47         48         49         50
                    3.4173     3.7214     4.1213     4.5439     4.6740
                     A          A          A          A          A   
    1  C  1  S   -0.010075  -0.069788  -0.317428   0.035180  -0.398214
    2  C  1  S    1.452195   0.695569  -1.882997   0.433688   3.019024
    3  C  1  X    0.431362   0.248165  -1.620523   0.651555  -0.246701
    4  C  1  Y    0.029790  -0.005892  -0.010239  -0.007073  -0.001359
    5  C  1  Z    0.375194   0.330799  -0.130414   0.000100  -0.115095
    6  C  1  S    1.657041  -0.465680  -2.276004  -2.559151   0.572504
    7  C  1  X    0.164577  -0.528682  -1.463919  -1.514481  -0.018069
    8  C  1  Y   -0.005966   0.011724   0.008443  -0.004574   0.009259
    9  C  1  Z   -0.012055  -0.164965  -0.386940  -0.416934  -0.007043
   10  C  1 XX   -0.875479   0.304569  -1.008859   0.363901  -1.989754
   11  C  1 YY   -0.258260  -0.688708   0.170707  -0.147403  -1.629933
   12  C  1 ZZ    0.049191  -0.300431   0.133445  -0.185259  -1.796121
   13  C  1 XY    0.048968  -0.006024  -0.001225   0.003085   0.002104
   14  C  1 XZ    0.626856   0.879689  -0.043620  -0.079110  -0.374641
   15  C  1 YZ    0.497185  -0.414239   0.152622   0.020051  -0.167294
   16  O  2  S    0.022927  -0.120826  -0.220467  -0.550177   0.072075
   17  O  2  S    0.496401  -0.721584  -0.390196  -0.588354   0.484240
   18  O  2  X   -0.010313   0.489487  -0.646916   0.539110  -0.313423
   19  O  2  Y   -0.017460   0.020998  -0.020219  -0.008845   0.008123
   20  O  2  Z   -0.216116  -0.086842  -0.184969   0.110800   0.017646
   21  O  2  S   -1.574090   1.700244   6.078003   6.436171  -0.412863
   22  O  2  X    1.200447   0.020623  -2.158957  -1.197314  -0.334109
   23  O  2  Y   -0.058550   0.000642   0.037471   0.023078  -0.006486
   24  O  2  Z    0.110835  -0.058050  -0.328529  -0.136879  -0.076460
   25  O  2 XX   -0.828510  -0.519032   0.781676  -2.075762   0.104078
   26  O  2 YY    0.239244  -0.391189  -1.336582  -1.657028   0.226061
   27  O  2 ZZ    0.478519  -0.078033  -0.983762  -1.861214   0.109131
   28  O  2 XY    0.105595  -0.030744  -0.019448  -0.015933   0.000017
   29  O  2 XZ    0.446991   0.685489   0.866734  -0.436341  -0.283927
   30  O  2 YZ   -0.068968   0.033801   0.014709   0.013385   0.008125
   31  H  3  S   -0.130605  -0.224245  -0.293831   0.219083   0.160825
   32  H  3  S   -0.142653  -0.150680   0.018303  -0.073408   0.116259
   33  H  3  X    0.156790   0.347320   0.464198  -0.324490  -0.120827
   34  H  3  Y    0.018561  -0.007488  -0.008574  -0.007197   0.001574
   35  H  3  Z   -0.002535   0.194823   0.388558  -0.352143  -0.150282
   36  H  4  S   -0.109805  -0.154452  -0.006712   0.007044   0.100907
   37  H  4  S   -0.161410  -0.301853  -0.204984  -0.210693  -0.032172
   38  H  4  X   -0.230512  -0.327161   0.123828   0.107131   0.211815
   39  H  4  Y   -0.075048   0.041526   0.018317   0.028368  -0.004423
   40  H  4  Z   -0.187344  -0.430200   0.031480  -0.058307   0.253835
   41  H  5  S   -0.061397   0.100109  -0.110707  -0.027742   0.075809
   42  H  5  S   -0.190884   0.115697   0.012567   0.090191  -0.059997
   43  H  5  X    0.201465  -0.066097  -0.130502  -0.145586   0.018793
   44  H  5  Y    0.245436  -0.256401   0.143345   0.053204  -0.173515
   45  H  5  Z    0.273969  -0.281534   0.125772   0.042568  -0.158680
   46  H  6  S   -0.107482   0.127417  -0.051109   0.007468   0.050788
   47  H  6  S   -0.259766   0.151219   0.034951   0.090936  -0.032570
   48  H  6  X    0.120994  -0.040327  -0.055974  -0.067716   0.009136
   49  H  6  Y   -0.340975   0.338437  -0.110098  -0.045318   0.157060
   50  H  6  Z   -0.351735   0.271816  -0.133401  -0.051759   0.172382

  ----- BETA SET ----- 

          ------------
          EIGENVECTORS
          ------------

                      1          2          3          4          5
                  -20.6652   -11.3991    -1.6260    -0.9199    -0.7920
                     A          A          A          A          A   
    1  C  1  S   -0.000023   0.995685  -0.130129   0.112498   0.000384
    2  C  1  S   -0.000309   0.027261   0.235854  -0.242296   0.000218
    3  C  1  X   -0.000577   0.003874   0.233049  -0.144523   0.000537
    4  C  1  Y   -0.000078  -0.000432   0.000738   0.002463   0.203403
    5  C  1  Z   -0.000175   0.000649   0.050185   0.003486   0.235357
    6  C  1  S   -0.001784  -0.001448   0.061201  -0.134624  -0.031275
    7  C  1  X   -0.000964   0.001971  -0.017532   0.000161  -0.006735
    8  C  1  Y   -0.000014   0.000263  -0.001688   0.003012   0.041813
    9  C  1  Z   -0.000260   0.000831  -0.014140   0.000558   0.048703
   10  C  1 XX   -0.000677  -0.000175   0.032794  -0.017099  -0.008120
   11  C  1 YY    0.000127  -0.002671  -0.024723   0.017022  -0.004857
   12  C  1 ZZ    0.000045  -0.002501  -0.022135   0.015620   0.005818
   13  C  1 XY   -0.000076  -0.000131   0.000565  -0.000614   0.024960
   14  C  1 XZ   -0.000282   0.000752   0.014382  -0.003935   0.025296
   15  C  1 YZ   -0.000046   0.000180   0.000305  -0.004549   0.003945
   16  O  2  S    0.994344  -0.001372  -0.204732  -0.079818   0.019366
   17  O  2  S    0.021889   0.000636   0.436217   0.194414  -0.054998
   18  O  2  X   -0.001525  -0.001021  -0.176523   0.441072  -0.161786
   19  O  2  Y    0.000460   0.000155   0.007520  -0.020272   0.322021
   20  O  2  Z    0.000079  -0.000215  -0.020320   0.151707   0.352148
   21  O  2  S    0.007232  -0.005112   0.304634   0.343481  -0.058817
   22  O  2  X   -0.000797   0.004410   0.001111   0.196979  -0.092489
   23  O  2  Y   -0.000179  -0.000029   0.005842  -0.005724   0.188247
   24  O  2  Z   -0.000256   0.000992   0.020148   0.085514   0.207587
   25  O  2 XX   -0.003855   0.000122   0.024960   0.001173   0.003034
   26  O  2 YY   -0.004720  -0.000281  -0.004438   0.005812  -0.002085
   27  O  2 ZZ   -0.004753  -0.000154  -0.000242   0.016149  -0.005237
   28  O  2 XY   -0.000131  -0.000105  -0.002322   0.003909  -0.016915
   29  O  2 XZ    0.000018   0.000321   0.008511   0.010083  -0.017045
   30  O  2 YZ    0.000047  -0.000116  -0.001374   0.002075   0.005877
   31  H  3  S    0.000179  -0.000538   0.024344   0.178557   0.030665
   32  H  3  S   -0.000205  -0.000767  -0.006550   0.095518   0.023083
   33  H  3  X   -0.000136   0.000095  -0.003496  -0.019507  -0.006670
   34  H  3  Y    0.000031   0.000009   0.000234   0.000483   0.004886
   35  H  3  Z   -0.000053   0.000360  -0.000395  -0.017848   0.001660
   36  H  4  S    0.000018   0.000034   0.005306  -0.034970  -0.041262
   37  H  4  S   -0.000083   0.000870  -0.011963  -0.016423  -0.020818
   38  H  4  X    0.000050  -0.000266   0.002273  -0.005158  -0.004879
   39  H  4  Y   -0.000007   0.000028  -0.000051   0.000725   0.002894
   40  H  4  Z    0.000040  -0.000218   0.001487  -0.003656  -0.001723
   41  H  5  S   -0.000029  -0.000063   0.018798  -0.021634   0.096812
   42  H  5  S    0.000082   0.000432   0.001668  -0.007739   0.074569
   43  H  5  X    0.000025   0.000028   0.000922  -0.000653   0.002795
   44  H  5  Y   -0.000025   0.000173  -0.002363   0.003604  -0.005655
   45  H  5  Z   -0.000025   0.000183  -0.001998   0.003065  -0.004296
   46  H  6  S   -0.000035   0.000068   0.011987  -0.039976  -0.088603
   47  H  6  S   -0.000041   0.000530  -0.000105  -0.020743  -0.065831
   48  H  6  X   -0.000041   0.000033   0.000154   0.001493   0.001004
   49  H  6  Y   -0.000040  -0.000199   0.002218  -0.003880  -0.004545
   50  H  6  Z   -0.000051  -0.000156   0.002125  -0.003072  -0.003555

                      6          7          8          9         10
                   -0.7222    -0.6871    -0.3518    -0.2102     0.0174
                     A          A          A          A          A   
    1  C  1  S   -0.006855   0.103093  -0.021373   0.017114  -0.042841
    2  C  1  S    0.008282  -0.201432   0.033493  -0.055800   0.057731
    3  C  1  X   -0.055471   0.348841  -0.146537   0.036954   0.094802
    4  C  1  Y    0.234051   0.024843   0.129269  -0.166380   0.062854
    5  C  1  Z   -0.204257   0.044356   0.176587   0.051566  -0.088475
    6  C  1  S    0.043460  -0.337133   0.181728  -0.063159  -0.017293
    7  C  1  X   -0.006848   0.095539  -0.040476   0.097790  -0.053604
    8  C  1  Y    0.051590   0.015352   0.153489  -0.211674   0.072890
    9  C  1  Z   -0.058473   0.033418   0.223772   0.080873  -0.115325
   10  C  1 XX    0.008360   0.026841  -0.005323  -0.030090   0.000714
   11  C  1 YY    0.003205  -0.013974   0.006631   0.029867  -0.007407
   12  C  1 ZZ   -0.002584  -0.028842   0.001401   0.009732  -0.007307
   13  C  1 XY    0.037216   0.005118  -0.020248   0.004795  -0.008402
   14  C  1 XZ   -0.025961  -0.015403  -0.026071  -0.029436  -0.011248
   15  C  1 YZ    0.008842  -0.011569   0.000028   0.033615  -0.007385
   16  O  2  S   -0.008653  -0.034335  -0.003694   0.039023   0.069046
   17  O  2  S    0.019540   0.075705   0.008533  -0.087739  -0.113806
   18  O  2  X    0.161155  -0.130058   0.164076   0.035068  -0.191452
   19  O  2  Y    0.419189   0.047095  -0.268926   0.129104  -0.106940
   20  O  2  Z   -0.307673  -0.178168  -0.265329  -0.077834  -0.150605
   21  O  2  S    0.053860   0.073604   0.010925  -0.283979  -0.522395
   22  O  2  X    0.085667  -0.039122   0.134695   0.008811  -0.314530
   23  O  2  Y    0.269585   0.030411  -0.261086   0.172958  -0.127504
   24  O  2  Z   -0.198349  -0.116495  -0.276782  -0.109684  -0.215535
   25  O  2 XX   -0.009723   0.002161  -0.005599   0.003711   0.041569
   26  O  2 YY    0.009536  -0.003643   0.005484   0.006878   0.007092
   27  O  2 ZZ    0.001902  -0.007951  -0.005569   0.003173   0.016802
   28  O  2 XY   -0.022809  -0.005163  -0.000848   0.002932   0.000339
   29  O  2 XZ    0.019361   0.002498  -0.010309   0.001328   0.023190
   30  O  2 YZ    0.000108  -0.003375  -0.003836   0.013356  -0.003187
   31  H  3  S   -0.008192  -0.071581  -0.097956   0.039481   0.262989
   32  H  3  S    0.004158  -0.064127  -0.150085   0.178892   1.017358
   33  H  3  X    0.005105   0.007165   0.004693   0.001080   0.011691
   34  H  3  Y    0.006085   0.000491  -0.005929   0.005420  -0.002561
   35  H  3  Z   -0.002332   0.004910  -0.004371   0.000675   0.009797
   36  H  4  S    0.055833  -0.175522  -0.072745  -0.199401  -0.003601
   37  H  4  S    0.048048  -0.131314  -0.078411  -0.471723  -0.022101
   38  H  4  X    0.004828  -0.011837  -0.005393  -0.003687   0.001424
   39  H  4  Y    0.001490   0.002338   0.006403  -0.009248   0.005032
   40  H  4  Z    0.003313  -0.010432   0.002479  -0.008963   0.000084
   41  H  5  S    0.024931  -0.087904   0.213861   0.151531   0.012257
   42  H  5  S    0.028239  -0.089808   0.322546   0.427987   0.068472
   43  H  5  X    0.001616   0.002535  -0.003802   0.002986  -0.001193
   44  H  5  Y    0.001171   0.007270  -0.009745  -0.005048  -0.000245
   45  H  5  Z   -0.003926   0.004928  -0.008670  -0.002859  -0.001342
   46  H  6  S    0.005905  -0.111326  -0.149336   0.226277  -0.074513
   47  H  6  S   -0.004010  -0.074988  -0.199891   0.588661  -0.244127
   48  H  6  X   -0.000381   0.005490   0.004272   0.002545   0.003651
   49  H  6  Y    0.002662  -0.009240  -0.009097   0.005900  -0.000987
   50  H  6  Z   -0.001638  -0.006534  -0.005380   0.010437  -0.002351

                     11         12         13         14         15
                    0.1255     0.2296     0.2894     0.4739     0.7114
                     A          A          A          A          A   
    1  C  1  S   -0.110379   0.058147   0.015057   0.009779   0.003247
    2  C  1  S    0.168858  -0.099461  -0.017354   0.056108  -0.225695
    3  C  1  X   -0.226374   0.084582  -0.007094  -0.032380   0.133584
    4  C  1  Y   -0.130919  -0.271300   0.350131   0.116094   0.681123
    5  C  1  Z    0.119909   0.245234   0.346806  -0.091476  -0.699011
    6  C  1  S    0.870371  -0.820488  -0.083457  -3.104079   0.527368
    7  C  1  X   -0.368306  -0.043068   0.119277  -2.765643   0.305657
    8  C  1  Y   -0.217666  -0.545861   0.925853   0.025253  -0.748565
    9  C  1  Z    0.172879   0.555805   1.062476  -0.719506   0.873543
   10  C  1 XX   -0.013947   0.019892   0.002323  -0.003143  -0.009760
   11  C  1 YY   -0.002160  -0.009947   0.000303   0.025178  -0.029664
   12  C  1 ZZ   -0.012516  -0.004898  -0.000433   0.012039  -0.020295
   13  C  1 XY    0.013691   0.001341   0.011113  -0.002586   0.017331
   14  C  1 XZ   -0.009641   0.004606   0.007295  -0.010667  -0.002536
   15  C  1 YZ   -0.010438  -0.006684   0.001708   0.020802  -0.016437
   16  O  2  S    0.005788  -0.012365   0.009013  -0.098278   0.006511
   17  O  2  S   -0.022731   0.029750   0.006723  -0.027325   0.043281
   18  O  2  X    0.048743  -0.029664  -0.012484  -0.052925   0.046270
   19  O  2  Y    0.179943   0.144912  -0.057508  -0.026901   0.057690
   20  O  2  Z   -0.083584  -0.212795  -0.083250  -0.012755  -0.021480
   21  O  2  S    0.037894   0.128980  -0.281982   3.382283  -0.512762
   22  O  2  X    0.042821  -0.097964   0.050882  -0.998947  -0.015796
   23  O  2  Y    0.246695   0.297679  -0.262500  -0.085252  -0.038374
   24  O  2  Z   -0.143423  -0.422937  -0.322434  -0.194656   0.013654
   25  O  2 XX    0.004365   0.008470   0.014592   0.007757  -0.035295
   26  O  2 YY   -0.003850   0.000955   0.004794  -0.096650   0.027369
   27  O  2 ZZ   -0.009248  -0.010015  -0.000772  -0.086150   0.055290
   28  O  2 XY    0.007440   0.012376  -0.016821  -0.012172  -0.078849
   29  O  2 XZ    0.000532  -0.009032  -0.013365   0.043828   0.051823
   30  O  2 YZ   -0.004895   0.004971  -0.006949   0.017103  -0.031407
   31  H  3  S    0.034641  -0.032769   0.009184   0.122520  -0.128745
   32  H  3  S    0.124363   0.265488   0.243823   0.178113   0.044686
   33  H  3  X    0.005727   0.005930   0.008869   0.002174  -0.030450
   34  H  3  Y    0.004335   0.010026  -0.012294   0.001459  -0.024740
   35  H  3  Z   -0.003974  -0.002332  -0.005417  -0.007314   0.013772
   36  H  4  S   -0.114132   0.116128  -0.031256   0.018465   0.003219
   37  H  4  S   -0.592548   0.998997   0.298835  -1.040243   0.338409
   38  H  4  X   -0.004258  -0.008814  -0.004268  -0.012428   0.011453
   39  H  4  Y   -0.001451  -0.007199   0.004613  -0.009895   0.001262
   40  H  4  Z    0.007099   0.000745   0.000513   0.002596   0.015792
   41  H  5  S   -0.143104   0.002561  -0.021294   0.012750  -0.027674
   42  H  5  S   -0.655629   0.270990  -1.096557   0.640873  -0.084889
   43  H  5  X   -0.006310   0.002738  -0.006242  -0.008378   0.004525
   44  H  5  Y   -0.002530  -0.002771  -0.001288  -0.009005   0.002371
   45  H  5  Z    0.000512   0.007688  -0.002693  -0.015873   0.015857
   46  H  6  S   -0.056613  -0.061382   0.035083   0.065300  -0.063399
   47  H  6  S   -0.253994  -0.222862   1.197222   0.681846  -0.133301
   48  H  6  X   -0.000822  -0.003100   0.004364   0.005466  -0.005302
   49  H  6  Y   -0.003443  -0.004586  -0.001461   0.008313  -0.007642
   50  H  6  Z    0.006067   0.001099  -0.000108   0.013353  -0.005704

                     16         17         18         19         20
                    0.7543     0.8765     0.8948     0.9842     1.0069
                     A          A          A          A          A   
    1  C  1  S   -0.000192  -0.015131   0.032678   0.002771   0.049665
    2  C  1  S   -0.148742  -0.413926  -0.467333  -0.943001  -0.075206
    3  C  1  X   -0.395756   0.221598   0.452232   0.435129   0.081021
    4  C  1  Y    0.082316  -0.558682   0.333952  -0.132003  -0.274431
    5  C  1  Z    0.103535  -0.467781   0.465554   0.012190  -0.228997
    6  C  1  S   -0.973011   0.681138   2.142686   1.635857   0.679110
    7  C  1  X   -0.374115  -0.246956  -0.121008  -0.657628  -0.011572
    8  C  1  Y   -0.169032   1.288009  -0.732903   0.264637   0.604744
    9  C  1  Z   -0.491253   1.088593  -0.980526  -0.089608   0.543825
   10  C  1 XX    0.027998  -0.052121  -0.003469  -0.144076   0.128305
   11  C  1 YY   -0.026315  -0.048031  -0.110882   0.012036  -0.114371
   12  C  1 ZZ   -0.002852  -0.100064  -0.105768   0.012435  -0.015116
   13  C  1 XY    0.000282   0.002289   0.010606  -0.013625  -0.010419
   14  C  1 XZ    0.050343  -0.024223   0.063272  -0.000942   0.135819
   15  C  1 YZ   -0.013071  -0.088207  -0.087958   0.137413  -0.044682
   16  O  2  S   -0.043014  -0.000292   0.018704  -0.001999  -0.014637
   17  O  2  S    0.192828   0.078846  -0.040627   0.060414  -0.137461
   18  O  2  X    0.108850  -0.036690  -0.267026   0.119123  -0.198398
   19  O  2  Y   -0.008114   0.053125   0.060908  -0.041500  -0.074709
   20  O  2  Z    0.173662   0.215606   0.159749   0.041834  -0.068584
   21  O  2  S    0.433815  -0.322807  -0.777481  -0.007478  -0.052583
   22  O  2  X   -0.853665   0.029796   0.988540  -0.212634   0.473280
   23  O  2  Y    0.005036  -0.169837  -0.057785   0.040957   0.148186
   24  O  2  Z   -0.337617  -0.269960   0.067280  -0.038589   0.133538
   25  O  2 XX   -0.024409  -0.047100  -0.074455   0.048024  -0.163461
   26  O  2 YY    0.087566   0.031781  -0.000010   0.021967  -0.016221
   27  O  2 ZZ    0.006890   0.044523  -0.026383  -0.004547  -0.026119
   28  O  2 XY   -0.010417   0.100383  -0.020338  -0.010741   0.031282
   29  O  2 XZ   -0.124200   0.053487  -0.042182  -0.015654  -0.020895
   30  O  2 YZ   -0.003241  -0.030240  -0.058605   0.028840   0.016264
   31  H  3  S   -0.947707  -0.214148   0.020970  -0.204421  -0.038217
   32  H  3  S    1.325156   0.251587  -0.317645   0.408144  -0.158371
   33  H  3  X   -0.041598  -0.034847   0.028553   0.008047   0.032122
   34  H  3  Y    0.001316   0.013060  -0.006719  -0.014390   0.014805
   35  H  3  Z   -0.021502  -0.000720  -0.004857  -0.018574   0.020495
   36  H  4  S    0.138992  -0.469809   0.178441   0.172688   0.833659
   37  H  4  S   -0.340414   0.277375  -0.819870  -0.524972  -1.130984
   38  H  4  X    0.012482  -0.021972  -0.044025  -0.018923   0.017807
   39  H  4  Y   -0.001196   0.036476   0.020719  -0.018294   0.003753
   40  H  4  Z    0.016847   0.005610  -0.027742  -0.037377   0.032399
   41  H  5  S   -0.145244  -0.373055  -0.530046   0.646952   0.314860
   42  H  5  S    0.368990  -0.556954   0.910185  -1.145475  -0.730835
   43  H  5  X    0.023153  -0.026630  -0.012592   0.001254   0.025481
   44  H  5  Y   -0.010001   0.067850   0.015135  -0.006474   0.021403
   45  H  5  Z   -0.005094   0.048220   0.000238  -0.012390   0.034625
   46  H  6  S   -0.009388  -0.196685  -0.016482   0.552805  -0.637704
   47  H  6  S    0.009605   0.830320  -0.658657  -0.712114   1.238048
   48  H  6  X   -0.010017   0.035091   0.003458  -0.005996  -0.025557
   49  H  6  Y   -0.003327  -0.003046  -0.058776   0.012137   0.008604
   50  H  6  Z   -0.012944   0.021308  -0.048272   0.008483  -0.010440

                     21         22         23         24         25
                    1.1171     1.1345     1.2958     1.3156     1.4757
                     A          A          A          A          A   
    1  C  1  S    0.031189  -0.009858   0.092908   0.027896   0.022906
    2  C  1  S    0.864105  -0.064456   0.317449  -0.697384   0.470621
    3  C  1  X    0.232350   0.060668  -0.213970  -0.510588   0.446214
    4  C  1  Y    0.050847   0.226378  -0.151500   0.114625  -0.010404
    5  C  1  Z   -0.207242  -0.002419  -0.310369   0.133603   0.115493
    6  C  1  S   -0.667766   0.218356  -0.069238  -0.402732   0.859733
    7  C  1  X    0.061160  -0.054368   0.484435  -0.595807  -0.163137
    8  C  1  Y   -0.089857  -0.805382   0.699989  -0.552648  -0.191925
    9  C  1  Z    0.672477  -0.144801   1.017774  -0.892415  -1.012605
   10  C  1 XX   -0.002070  -0.017237   0.246248   0.164328   0.041262
   11  C  1 YY    0.062196   0.004310  -0.127520  -0.046706   0.176053
   12  C  1 ZZ    0.100133  -0.032153  -0.029532  -0.237722  -0.271228
   13  C  1 XY    0.002685  -0.140851  -0.046809   0.039910   0.091988
   14  C  1 XZ    0.118099  -0.012151   0.098742   0.011604  -0.004619
   15  C  1 YZ    0.102208  -0.067089   0.117058   0.062383  -0.040244
   16  O  2  S    0.009126   0.001728  -0.051417  -0.081837   0.007248
   17  O  2  S   -0.259973  -0.061354  -0.335907  -0.298113  -0.177310
   18  O  2  X   -0.263037  -0.027039  -0.426683  -0.372811  -0.099434
   19  O  2  Y    0.012837  -0.885313  -0.040785   0.045362   0.037487
   20  O  2  Z    0.599456   0.034495  -0.278278   0.090170  -0.535300
   21  O  2  S    0.161246   0.071969   0.508813   1.975402  -0.170766
   22  O  2  X    0.958660   0.054785   0.745829  -0.542552   1.058732
   23  O  2  Y   -0.020588   1.304486  -0.128941   0.023968  -0.041734
   24  O  2  Z   -0.746567   0.033747   0.201338  -0.090317   1.380930
   25  O  2 XX   -0.017844  -0.020281  -0.339128  -0.390884   0.006279
   26  O  2 YY   -0.098095  -0.005526  -0.092792  -0.024860   0.094472
   27  O  2 ZZ   -0.159403  -0.021550  -0.091611  -0.037434  -0.323079
   28  O  2 XY   -0.027397   0.003482   0.030976  -0.068244  -0.067208
   29  O  2 XZ   -0.012851  -0.006378  -0.072768  -0.050931  -0.078836
   30  O  2 YZ    0.051939  -0.000671   0.007986   0.048235  -0.020938
   31  H  3  S   -0.247109  -0.022282  -0.117397   0.234426  -0.623944
   32  H  3  S    0.021128  -0.016693  -0.389913  -0.123487  -0.103978
   33  H  3  X    0.064838   0.000772   0.022194   0.008973   0.018671
   34  H  3  Y   -0.007496   0.108460   0.001194  -0.024336  -0.046472
   35  H  3  Z   -0.116560   0.000234   0.047536   0.097902  -0.063177
   36  H  4  S   -0.156041  -0.199156   0.176679  -0.592467  -0.400349
   37  H  4  S    0.552703   0.125055   0.341590   0.199453  -0.188111
   38  H  4  X    0.016445  -0.010331   0.043541  -0.067986   0.016508
   39  H  4  Y   -0.024794  -0.018968  -0.020489   0.000189  -0.011304
   40  H  4  Z    0.022118  -0.001726   0.070132   0.052925   0.014169
   41  H  5  S    0.338040  -0.053923  -0.336562   0.519736   0.224809
   42  H  5  S   -0.156314   0.054308  -0.265901  -0.062512  -0.010258
   43  H  5  X   -0.004447   0.039635   0.019300   0.051528   0.092185
   44  H  5  Y   -0.018657   0.002791  -0.013234   0.036985   0.048884
   45  H  5  Z   -0.025498  -0.017585   0.028935  -0.015410  -0.058273
   46  H  6  S    0.030234  -0.032474   0.868048  -0.241672  -0.259890
   47  H  6  S   -0.003627  -0.194024  -0.231084  -0.368935  -0.068185
   48  H  6  X    0.007704  -0.039128  -0.023840   0.036429  -0.113499
   49  H  6  Y    0.051301  -0.032360   0.034647  -0.054931  -0.072123
   50  H  6  Z    0.046571  -0.033635  -0.004310   0.011917   0.011277

                     26         27         28         29         30
                    1.5750     1.6397     1.7371     1.8289     1.8823
                     A          A          A          A          A   
    1  C  1  S   -0.049165  -0.009302  -0.024389  -0.029483  -0.020603
    2  C  1  S   -0.155047  -0.016900  -0.098668   0.271877  -0.273338
    3  C  1  X    0.048372   0.263801  -0.041912  -0.029096  -0.004609
    4  C  1  Y    0.008582   0.022530  -0.302969   0.140499   0.126002
    5  C  1  Z    0.020485   0.152332  -0.055924   0.143581  -0.172580
    6  C  1  S   -2.400202  -0.689127  -1.721626  -1.614808  -1.618469
    7  C  1  X   -1.522135  -1.096711  -0.956319  -1.005310  -1.081336
    8  C  1  Y    0.138559  -0.139839   0.317902  -0.251831  -0.059440
    9  C  1  Z   -0.314287  -0.880606   0.095113  -0.605272  -0.267802
   10  C  1 XX   -0.165034  -0.054767  -0.143656   0.014337  -0.251369
   11  C  1 YY    0.354660  -0.399781   0.084049  -0.003738   0.071666
   12  C  1 ZZ   -0.147335   0.409824   0.112382  -0.007042   0.245284
   13  C  1 XY   -0.096825   0.009030   0.368034  -0.142809  -0.151925
   14  C  1 XZ   -0.070511  -0.183039   0.026914  -0.224939   0.344876
   15  C  1 YZ    0.148884   0.107295  -0.083723  -0.328454  -0.263694
   16  O  2  S   -0.051920  -0.024780  -0.032243  -0.042516  -0.041970
   17  O  2  S   -1.229404  -0.694181  -0.665322  -0.748117  -0.561503
[...]
   25  O  2 XX   -0.004876  -0.012388  -0.005196   0.002487   0.040155
   26  O  2 YY    0.014127   0.000107  -0.002833  -0.015987   0.041936
   27  O  2 ZZ   -0.009250   0.006071  -0.012317   0.013500   0.030138
   28  O  2 XY    0.009489  -0.018040  -0.005138  -0.003597  -0.000146
   29  O  2 XZ    0.009843   0.018105   0.001825  -0.006815  -0.004463
   30  O  2 YZ   -0.002071   0.005242   0.017083   0.004873   0.016051
   31  H  3  S    0.000004   0.042214  -0.137898  -0.000001   0.057955
   32  H  3  S    0.000002   0.039654  -0.097483   0.000000   1.272616
   33  H  3  X    0.002236   0.009747   0.011050  -0.003547  -0.007121
   34  H  3  Y   -0.009125   0.006122   0.000314   0.014477   0.003685
   35  H  3  Z   -0.006317  -0.005394   0.003458   0.010020  -0.007845
   36  H  4  S   -0.000008   0.212842  -0.203591  -0.000018   0.004318
   37  H  4  S   -0.000006   0.154454  -0.195233  -0.000020   0.475401
   38  H  4  X    0.001151   0.001703  -0.004988   0.000961   0.005490
   39  H  4  Y   -0.004697  -0.005010   0.003237  -0.003923   0.001877
   40  H  4  Z   -0.003252   0.007840  -0.006441  -0.002716  -0.000769
   41  H  5  S   -0.183654  -0.011421   0.125095  -0.171635  -0.002407
   42  H  5  S   -0.149759  -0.007279   0.132868  -0.193079   0.669928
   43  H  5  X   -0.005336  -0.004140   0.002357  -0.002459   0.004285
   44  H  5  Y    0.000198   0.001572  -0.006671   0.000230  -0.000351
   45  H  5  Z    0.007633  -0.002193  -0.002076   0.005848   0.000983
   46  H  6  S    0.183670  -0.011410   0.125064   0.171653  -0.002409
   47  H  6  S    0.149770  -0.007270   0.132837   0.193102   0.669851
   48  H  6  X    0.003174  -0.003799  -0.000409   0.000905   0.004055
   49  H  6  Y    0.008625   0.000184   0.004614   0.006113   0.000585
   50  H  6  Z   -0.001525  -0.003154   0.005737  -0.001457   0.001630

                     11         12         13         14         15
                    0.2804     0.3238     0.3304     0.3886     0.7582
                     A          A          A          A          A   
    1  C  1  S    0.136013   0.012147  -0.000006   0.061083  -0.003080
    2  C  1  S   -0.110784   0.000460   0.000003  -0.034953   0.022749
    3  C  1  X    0.060526  -0.053725  -0.072830  -0.174303  -0.008282
    4  C  1  Y   -0.000046   0.182090   0.297238  -0.051742   0.401585
    5  C  1  Z    0.021518  -0.282053   0.205760   0.013065  -0.583094
    6  C  1  S   -2.450927  -0.176963   0.000120  -1.031631  -0.036829
    7  C  1  X    0.199625  -0.351320  -0.298641  -1.569517   0.095843
    8  C  1  Y   -0.003631   0.783455   1.218931  -0.529179  -0.917547
    9  C  1  Z    0.076006  -1.256106   0.843803   0.208930   1.359510
   10  C  1 XX    0.010925   0.005371   0.001239   0.007230  -0.024947
   11  C  1 YY    0.002291   0.001082   0.004553  -0.016098  -0.024289
   12  C  1 ZZ    0.000889  -0.005634  -0.005791  -0.015967   0.035175
   13  C  1 XY    0.000171   0.001604  -0.003564   0.009268  -0.013131
   14  C  1 XZ    0.002495  -0.002531  -0.000838  -0.002026   0.034867
   15  C  1 YZ    0.003269   0.008594  -0.003010  -0.004175  -0.070609
   16  O  2  S   -0.060337  -0.009178   0.000006  -0.052682  -0.008946
   17  O  2  S    0.016063   0.005944  -0.000003   0.038062   0.100354
   18  O  2  X   -0.030429  -0.064663   0.015951  -0.296619   0.115305
   19  O  2  Y   -0.078119  -0.043096  -0.065050   0.004750   0.046771
   20  O  2  Z    0.102082   0.039358  -0.045037  -0.111878  -0.026746
   21  O  2  S    0.953157   0.164227  -0.000096   0.899941   0.001237
   22  O  2  X   -0.130908  -0.129545   0.051342  -0.995227  -0.047723
   23  O  2  Y   -0.201539  -0.148425  -0.209364  -0.015765   0.110131
   24  O  2  Z    0.244809   0.168545  -0.144954  -0.329577  -0.176000
   25  O  2 XX   -0.043979   0.001093   0.002487   0.008158   0.053663
   26  O  2 YY   -0.037211  -0.003713   0.007466  -0.028387   0.020649
   27  O  2 ZZ   -0.032522  -0.000234  -0.009945  -0.038944   0.012793
   28  O  2 XY    0.001168  -0.004886  -0.006910   0.017051   0.009773
   29  O  2 XZ   -0.002238   0.008533  -0.002020  -0.009706  -0.001747
   30  O  2 YZ   -0.008630   0.000270  -0.005313   0.006077   0.008039
   31  H  3  S   -0.047400   0.018802  -0.000001   0.023777  -0.086291
   32  H  3  S   -0.841314   0.079602   0.000048   0.972333  -0.151751
   33  H  3  X   -0.002058   0.006697   0.001122  -0.008463  -0.033078
   34  H  3  Y   -0.001998   0.000899  -0.004578   0.005158  -0.000551
   35  H  3  Z    0.002158   0.001074  -0.003170  -0.010450  -0.010916
   36  H  4  S   -0.001456  -0.059967   0.000001  -0.044297   0.504821
   37  H  4  S    1.195121  -1.920376  -0.000065   0.284214   0.343618
   38  H  4  X   -0.000633  -0.004980  -0.001722  -0.001796   0.019224
   39  H  4  Y   -0.002756   0.002355   0.007028  -0.002993  -0.015467
   40  H  4  Z    0.003757  -0.005165   0.004865   0.003688   0.029151
   41  H  5  S   -0.002975   0.023856  -0.028105  -0.063593  -0.241382
   42  H  5  S    1.048380   0.939264  -1.682439  -0.275960  -0.154438
   43  H  5  X    0.000208  -0.000220  -0.004539  -0.007725  -0.004303
   44  H  5  Y   -0.000178   0.004615   0.005669  -0.005318  -0.014630
   45  H  5  Z   -0.003656  -0.006095   0.002047  -0.001737   0.028977
   46  H  6  S   -0.002970   0.023856   0.028110  -0.063591  -0.241331
   47  H  6  S    1.048486   0.939205   1.682408  -0.275832  -0.154393
   48  H  6  X   -0.000671  -0.000077   0.001930  -0.009198  -0.002237
   49  H  6  Y    0.003409   0.004031   0.004982   0.000695  -0.023052
   50  H  6  Z   -0.001173  -0.006499   0.005327   0.002426   0.023147

                     16         17         18         19
                    0.7703     0.7921     1.0238     1.0989
                     A          A          A          A   
    1  C  1  S   -0.000001   0.039022   0.005502   0.000002
    2  C  1  S   -0.000003  -0.437046   0.068934  -0.000023
    3  C  1  X    0.138960  -0.968793   0.070939  -0.156228
    4  C  1  Y   -0.567052  -0.160011   0.280624   0.637587
    5  C  1  Z   -0.392504  -0.111809  -0.380274   0.441347
    6  C  1  S    0.000031   0.431831  -0.302634   0.000043
    7  C  1  X   -0.336406   1.219153   0.013104   0.281675
    8  C  1  Y    1.372803   0.155629  -0.569461  -1.149502
    9  C  1  Z    0.950248   0.206788   0.827308  -0.795713
   10  C  1 XX   -0.003420   0.057359  -0.092161  -0.056492
   11  C  1 YY    0.069529  -0.040434   0.089388   0.202625
   12  C  1 ZZ   -0.066109  -0.047198  -0.001972  -0.146131
   13  C  1 XY   -0.001777   0.031116   0.054300   0.104431
   14  C  1 XZ    0.019089  -0.002095  -0.159578   0.121999
   15  C  1 YZ   -0.027338  -0.000742   0.047468  -0.040875
   16  O  2  S    0.000000  -0.020111   0.029454  -0.000000
   17  O  2  S   -0.000004   0.237986   0.006732   0.000021
   18  O  2  X    0.035350  -0.260042   0.107270   0.033372
   19  O  2  Y   -0.144257  -0.070811   0.158317  -0.136196
   20  O  2  Z   -0.099856   0.010238  -0.190768  -0.094257
   21  O  2  S   -0.000000  -0.746670   0.005009  -0.000044
   22  O  2  X    0.042091   0.011489  -0.298903  -0.050506
   23  O  2  Y   -0.171731   0.048357   0.003760   0.206146
   24  O  2  Z   -0.118867  -0.065798  -0.111237   0.142683
   25  O  2 XX   -0.003420  -0.110050   0.070000   0.034486
   26  O  2 YY    0.018458   0.098554  -0.012510  -0.039357
   27  O  2 ZZ   -0.015042   0.108388   0.137896   0.004885
   28  O  2 XY    0.005445  -0.051983  -0.084210  -0.075663
   29  O  2 XZ    0.008649  -0.013571   0.177456  -0.057237
   30  O  2 YZ   -0.005165  -0.004549  -0.119877  -0.011654
   31  H  3  S   -0.000008   0.092210   0.759215  -0.000027
   32  H  3  S    0.000008  -0.188618  -0.574330   0.000031
   33  H  3  X    0.000512  -0.050115   0.073593   0.002096
   34  H  3  Y   -0.002088  -0.022026  -0.068695  -0.008571
   35  H  3  Z   -0.001445   0.014080   0.125296  -0.005940
   36  H  4  S   -0.000031   0.086096  -0.301009  -0.000017
   37  H  4  S   -0.000024   0.124748   1.051431   0.000049
   38  H  4  X   -0.006332  -0.012964   0.074464  -0.009122
   39  H  4  Y    0.025833  -0.016192  -0.009663   0.037234
   40  H  4  Z    0.017881   0.018801   0.040319   0.025778
   41  H  5  S   -0.427741   0.076551   0.320871  -0.635330
   42  H  5  S   -0.358844   0.017055  -0.503677   1.430804
   43  H  5  X   -0.018698  -0.018031  -0.028598   0.073471
   44  H  5  Y    0.026631  -0.011777   0.021419  -0.005034
   45  H  5  Z    0.021667  -0.015740   0.035041  -0.086875
   46  H  6  S    0.427762   0.076561   0.320870   0.635406
   47  H  6  S    0.358847   0.017067  -0.503621  -1.430918
   48  H  6  X    0.003985  -0.023841  -0.011822  -0.046988
   49  H  6  Y    0.033417   0.011942  -0.047030  -0.103048
   50  H  6  Z    0.019898   0.000680  -0.012345   0.012051

     ----------------------------------------------------------------
     PROPERTY VALUES FOR THE UHF   SELF-CONSISTENT FIELD WAVEFUNCTION
     ----------------------------------------------------------------

          -----------------
          ENERGY COMPONENTS
          -----------------

         WAVEFUNCTION NORMALIZATION =       1.0000000000

                ONE ELECTRON ENERGY =    -237.8038968675
                TWO ELECTRON ENERGY =      81.9465855049
           NUCLEAR REPULSION ENERGY =      40.8106012307
                                      ------------------
                       TOTAL ENERGY =    -115.0467101319

 ELECTRON-ELECTRON POTENTIAL ENERGY =      81.9465855049
  NUCLEUS-ELECTRON POTENTIAL ENERGY =    -352.6670972357
   NUCLEUS-NUCLEUS POTENTIAL ENERGY =      40.8106012307
                                      ------------------
             TOTAL POTENTIAL ENERGY =    -229.9099105001
               TOTAL KINETIC ENERGY =     114.8632003682
                 VIRIAL RATIO (V/T) =       2.0015976376

          ---------------------------------------
          MULLIKEN AND LOWDIN POPULATION ANALYSES
          ---------------------------------------

     ATOMIC MULLIKEN POPULATION IN EACH MOLECULAR ORBITAL
        ALPHA ORBITALS

                      1          2          3          4          5

                  1.000000   1.000000   1.000000   1.000000   1.000000

    1             0.000019   0.999291   0.102963   0.519679   0.242977
    2             1.000047  -0.000019   0.803010   0.174676   0.493793
    3            -0.000063   0.000010   0.082266   0.044068   0.146156
    4             0.000000   0.000243   0.004815   0.095161   0.006387
    5            -0.000002   0.000238   0.003473   0.083209   0.055353
    6            -0.000002   0.000238   0.003473   0.083206   0.055335

                      6          7          8          9

                  1.000000   1.000000   1.000000   1.000000

    1             0.396048   0.374782   0.243412   0.127400
    2             0.320053   0.432300   0.438270   0.654783
    3             0.001670   0.009147   0.045065   0.003957
    4             0.000683   0.182374   0.146922   0.000356
    5             0.140760   0.000699   0.063180   0.106739
    6             0.140786   0.000698   0.063151   0.106765

     ATOMIC MULLIKEN POPULATION IN EACH MOLECULAR ORBITAL
         BETA ORBITALS

                      1          2          3          4          5

                  1.000000   1.000000   1.000000   1.000000   1.000000

    1             0.000019   0.999291   0.102963   0.519679   0.242977
    2             1.000047  -0.000019   0.803010   0.174676   0.493793
    3            -0.000063   0.000010   0.082266   0.044068   0.146156
    4             0.000000   0.000243   0.004815   0.095161   0.006387
    5            -0.000002   0.000238   0.003473   0.083209   0.055353
    6            -0.000002   0.000238   0.003473   0.083206   0.055335

                      6          7          8          9

                  1.000000   1.000000   1.000000   1.000000

    1             0.396048   0.374782   0.243412   0.127400
    2             0.320053   0.432300   0.438270   0.654783
    3             0.001670   0.009147   0.045065   0.003957
    4             0.000683   0.182374   0.146922   0.000356
    5             0.140760   0.000699   0.063180   0.106739
    6             0.140786   0.000698   0.063151   0.106765

     ATOMIC SPIN POPULATION (ALPHA MINUS BETA)
       ATOM         MULL.POP.                    LOW.POP.
    1 C             0.000000                     0.000000
    2 O             0.000000                     0.000000
    3 H             0.000000                     0.000000
    4 H             0.000000                     0.000000
    5 H             0.000000                     0.000000
    6 H             0.000000                     0.000000


          ********* ALL ELECTRONS ********

               ----- POPULATIONS IN EACH AO -----
                             MULLIKEN      LOWDIN
              1  C  1  S      1.99657     1.97984
              2  C  1  S      0.64625     0.33910
              3  C  1  X      0.55661     0.50151
              4  C  1  Y      0.70375     0.60743
              5  C  1  Z      0.71572     0.61976
              6  C  1  S      0.53845     0.32138
              7  C  1  X      0.12702     0.27399
              8  C  1  Y      0.31497     0.45944
              9  C  1  Z      0.34431     0.47071
             10  C  1 XX      0.01974     0.16351
             11  C  1 YY      0.00787     0.15152
             12  C  1 ZZ      0.00515     0.14665
             13  C  1 XY      0.01385     0.02772
             14  C  1 XZ      0.01716     0.03428
             15  C  1 YZ      0.00574     0.00884
             16  O  2  S      1.99537     1.97700
             17  O  2  S      0.89090     0.68965
             18  O  2  X      0.83242     0.77108
             19  O  2  Y      1.08315     1.04553
             20  O  2  Z      0.98505     0.92995
             21  O  2  S      0.91088     0.44598
             22  O  2  X      0.51052     0.55269
             23  O  2  Y      0.73852     0.74618
             24  O  2  Z      0.64272     0.67648
             25  O  2 XX      0.02232     0.18350
             26  O  2 YY      0.00241     0.16415
             27  O  2 ZZ      0.00525     0.17041
             28  O  2 XY      0.00517     0.00965
             29  O  2 XZ      0.00412     0.01124
             30  O  2 YZ      0.00500     0.00608
             31  H  3  S      0.50011     0.45521
             32  H  3  S      0.12079     0.21268
             33  H  3  X      0.01063     0.02928
             34  H  3  Y      0.01334     0.03792
             35  H  3  Z      0.01968     0.04740
             36  H  4  S      0.54226     0.50712
             37  H  4  S      0.31924     0.35609
             38  H  4  X      0.00205     0.00626
             39  H  4  Y      0.00353     0.00928
             40  H  4  Z      0.00680     0.01591
             41  H  5  S      0.54524     0.51147
             42  H  5  S      0.34962     0.37431
             43  H  5  X      0.00299     0.00820
             44  H  5  Y      0.00278     0.00782
             45  H  5  Z      0.00667     0.01510
             46  H  6  S      0.54523     0.51417
             47  H  6  S      0.34962     0.37479
             48  H  6  X      0.00128     0.00465
             49  H  6  Y      0.00908     0.02013
             50  H  6  Z      0.00208     0.00696

          ----- MULLIKEN ATOMIC OVERLAP POPULATIONS -----
          (OFF-DIAGONAL ELEMENTS NEED TO BE MULTIPLIED BY 2)

             1           2           3           4           5

    1    4.6088106
    2    0.2179883   8.2144965
    3   -0.0302192   0.3165039   0.3816405
    4    0.4125637  -0.0375300   0.0057204   0.5660115
    5    0.4019991  -0.0388143  -0.0045490  -0.0364401   0.6323692
    6    0.4019982  -0.0388158  -0.0045472  -0.0364422  -0.0472666

             6

    6    0.6323732

          TOTAL MULLIKEN AND LOWDIN ATOMIC POPULATIONS
       ATOM         MULL.POP.    CHARGE          LOW.POP.     CHARGE
    1 C             6.013141   -0.013141         6.105683   -0.105683
    2 O             8.633829   -0.633829         8.379564   -0.379564
    3 H             0.664549    0.335451         0.782497    0.217503
    4 H             0.873883    0.126117         0.894663    0.105337
    5 H             0.907298    0.092702         0.916893    0.083107
    6 H             0.907300    0.092700         0.920701    0.079299

          -------------------------------
          BOND ORDER AND VALENCE ANALYSIS     BOND ORDER THRESHOLD=0.050
          -------------------------------

                   BOND                       BOND                       BOND
  ATOM PAIR DIST  ORDER      ATOM PAIR DIST  ORDER      ATOM PAIR DIST  ORDER
    1   2  1.399  0.874        1   4  1.082  0.976        1   5  1.088  0.970
    1   6  1.088  0.970        2   3  0.942  0.879

                       TOTAL       BONDED        FREE
      ATOM            VALENCE     VALENCE     VALENCE
    1 C                 3.789       3.789      -0.000
    2 O                 1.741       1.741      -0.000
    3 H                 0.881       0.881      -0.000
    4 H                 0.949       0.949      -0.000
    5 H                 0.946       0.946      -0.000
    6 H                 0.946       0.946      -0.000

          -----------------------------------------
          ATOMIC SPIN DENSITY AT THE NUCLEUS (A.U.)
          -----------------------------------------
                            SPIN DENS    ALPHA DENS     BETA DENS
    1  C            6.0     0.0000000      58.99580      58.99580
    2  O            8.0     0.0000000     145.17377     145.17377
    3  H            1.0     0.0000000       0.20869       0.20869
    4  H            1.0     0.0000000       0.21885       0.21885
    5  H            1.0     0.0000000       0.21977       0.21977
    6  H            1.0     0.0000000       0.21977       0.21977

          ---------------------
          ELECTROSTATIC MOMENTS
          ---------------------

 POINT   1           X           Y           Z (BOHR)    CHARGE
                 1.321822    0.279318   -0.095592        0.00 (A.U.)
         DX          DY          DZ         /D/  (DEBYE)
    -0.839772   -1.061872    1.236865    1.833746
 ...... END OF PROPERTY EVALUATION ......
 STEP CPU TIME =     0.01 TOTAL CPU TIME =        9.9 (    0.2 MIN)
 TOTAL WALL CLOCK TIME=        9.9 SECONDS, CPU UTILIZATION IS 100.00%
  $VIB   
          IVIB=   0 IATOM=   0 ICOORD=   0 E=     -115.0467101319
 -9.010284874E-06-6.157330086E-06 1.392019738E-05 1.025189967E-05-8.466945558E-06
  1.578385596E-05 1.079364992E-07 3.315453638E-06-4.371640332E-06-1.825324699E-05
  3.510148432E-06-1.206277040E-05 1.174014147E-05-3.554675366E-06-1.295054115E-05
  5.163553772E-06 1.135334814E-05-3.191013616E-07
 -8.397715362E-01-1.061872242E+00 1.236865454E+00
 ......END OF GEOMETRY SEARCH......
 STEP CPU TIME =     0.00 TOTAL CPU TIME =        9.9 (    0.2 MIN)
 TOTAL WALL CLOCK TIME=        9.9 SECONDS, CPU UTILIZATION IS  99.50%
               999518  WORDS OF DYNAMIC MEMORY USED
 EXECUTION OF GAMESS TERMINATED NORMALLY Thu Mar 10 23:51:09 2016
 DDI: 263640 bytes (0.3 MB / 0 MWords) used by master data server.

 ----------------------------------------
 CPU timing information for all processes
 ========================================
 0: 9.324 + 0.556 = 9.880
 ----------------------------------------
 ddikick.x: exited gracefully.
----- accounting info -----
Files used on the master node andre-mint were:
-rw-r--r-- 1 andrepd andrepd  569539 Mar 10 23:51 ./7_CH3OH_a.dat
-rw-r--r-- 1 andrepd andrepd     348 Mar 10 23:50 ./7_CH3OH_a.F05
-rw-r--r-- 1 andrepd andrepd 9720864 Mar 10 23:51 ./7_CH3OH_a.F08
-rw-r--r-- 1 andrepd andrepd 2094080 Mar 10 23:51 ./7_CH3OH_a.F10
-rw-r--r-- 1 andrepd andrepd     348 Mar 10 23:50 ./7_CH3OH_a.inp
-rw-r--r-- 1 andrepd andrepd  287034 Mar 10 23:51 ./7_CH3OH_a.out
Qui Mar 10 23:51:12 WET 2016
0.0u 0.0s 0:13.00 0.4% 0+0k 0+8io 0pf+0w
