----- GAMESS execution script 'rungms' -----
This job is running on host andre-mint
under operating system Linux at Qui Mar 10 23:52:17 WET 2016
Available scratch disk space (Kbyte units) at beginning of the job is
Filesystem     1K-blocks     Used Available Use% Mounted on
/dev/sda5       72784020 70999284    286772 100% /home
GAMESS temporary binary files will be written to .
GAMESS supplementary output files will be written to .
Copying input file 7_CH3O-_a.inp to your run's scratch directory...

 Distributed Data Interface kickoff program.
 Initiating 1 compute processes on 1 nodes to run the following command:
 /home/andrepd/Development/gamess/gamess//gamess.69.x 7_CH3O-_a 

          ******************************************************
          *         GAMESS VERSION =  5 DEC 2014 (R1)          *
          *             FROM IOWA STATE UNIVERSITY             *
          * M.W.SCHMIDT, K.K.BALDRIDGE, J.A.BOATZ, S.T.ELBERT, *
          *   M.S.GORDON, J.H.JENSEN, S.KOSEKI, N.MATSUNAGA,   *
          *          K.A.NGUYEN, S.J.SU, T.L.WINDUS,           *
          *       TOGETHER WITH M.DUPUIS, J.A.MONTGOMERY       *
          *         J.COMPUT.CHEM.  14, 1347-1363(1993)        *
          **************** 64 BIT LINUX VERSION ****************

  SINCE 1993, STUDENTS AND POSTDOCS WORKING AT IOWA STATE UNIVERSITY
  AND ALSO IN THEIR VARIOUS JOBS AFTER LEAVING ISU HAVE MADE IMPORTANT
  CONTRIBUTIONS TO THE CODE:
     IVANA ADAMOVIC, CHRISTINE AIKENS, YURI ALEXEEV, POOJA ARORA,
     ANDREY ASADCHEV, ROB BELL, PRADIPTA BANDYOPADHYAY, JONATHAN BENTZ,
     BRETT BODE, KURT BRORSEN, CALEB CARLIN, GALINA CHABAN, WEI CHEN,
     CHEOL HO CHOI, PAUL DAY, ALBERT DEFUSCO, NUWAN DESILVA, TIM DUDLEY,
     DMITRI FEDOROV, GRAHAM FLETCHER, MARK FREITAG, KURT GLAESEMANN,
     DAN KEMP, GRANT MERRILL, NORIYUKI MINEZAWA, JONATHAN MULLIN,
     TAKESHI NAGATA, SEAN NEDD, HEATHER NETZLOFF, BOSILJKA NJEGIC, RYAN OLSON,
     MIKE PAK, SPENCER PRUITT, LUKE ROSKOP, JIM SHOEMAKER, LYUDMILA SLIPCHENKO,
     TONY SMITH, SAROM SOK, JIE SONG, TETSUYA TAKETSUGU, SIMON WEBB,
     PENG XU, SOOHAENG YOO, FEDERICO ZAHARIEV

  ADDITIONAL CODE HAS BEEN PROVIDED BY COLLABORATORS IN OTHER GROUPS:
     IOWA STATE UNIVERSITY:
          JOE IVANIC, AARON WEST, LAIMUTIS BYTAUTAS, KLAUS RUEDENBERG
     UNIVERSITY OF TOKYO: KIMIHIKO HIRAO, TAKAHITO NAKAJIMA,
          TAKAO TSUNEDA, MUNEAKI KAMIYA, SUSUMU YANAGISAWA,
          KIYOSHI YAGI, MAHITO CHIBA, SEIKEN TOKURA, NAOAKI KAWAKAMI
     UNIVERSITY OF AARHUS: FRANK JENSEN
     UNIVERSITY OF IOWA: VISVALDAS KAIRYS, HUI LI
     NATIONAL INST. OF STANDARDS AND TECHNOLOGY: WALT STEVENS, DAVID GARMER
     UNIVERSITY OF PISA: BENEDETTA MENNUCCI, JACOPO TOMASI
     UNIVERSITY OF MEMPHIS: HENRY KURTZ, PRAKASHAN KORAMBATH
     UNIVERSITY OF ALBERTA: TOBY ZENG, MARIUSZ KLOBUKOWSKI
     UNIVERSITY OF NEW ENGLAND: MARK SPACKMAN
     MIE UNIVERSITY: HIROAKI UMEDA
     NAT. INST. OF ADVANCED INDUSTRIAL SCIENCE AND TECHNOLOGY: KAZUO KITAURA
     MICHIGAN STATE UNIVERSITY:
          KAROL KOWALSKI, MARTA WLOCH, JEFFREY GOUR, JESSE LUTZ,
          WEI LI, PIOTR PIECUCH
     UNIVERSITY OF SILESIA: MONIKA MUSIAL, STANISLAW KUCHARSKI
     FACULTES UNIVERSITAIRES NOTRE-DAME DE LA PAIX:
          OLIVIER QUINET, BENOIT CHAMPAGNE
     UNIVERSITY OF CALIFORNIA - SANTA BARBARA: BERNARD KIRTMAN
     INSTITUTE FOR MOLECULAR SCIENCE:
          KAZUYA ISHIMURA, MICHIO KATOUDA, AND SHIGERU NAGASE
     UNIVERSITY OF NOTRE DAME: ANNA POMOGAEVA, DAN CHIPMAN
     KYUSHU UNIVERSITY:
          HARUYUKI NAKANO,
          FENG LONG GU, JACEK KORCHOWIEC, MARCIN MAKOWSKI, AND YURIKO AOKI,
          HIROTOSHI MORI AND EISAKU MIYOSHI
     PENNSYLVANIA STATE UNIVERSITY:
          TZVETELIN IORDANOV, CHET SWALINA, JONATHAN SKONE,
          SHARON HAMMES-SCHIFFER
     WASEDA UNIVERSITY:
          MASATO KOBAYASHI, TOMOKO AKAMA, TSUGUKI TOUMA,
          TAKESHI YOSHIKAWA, YASUHIRO IKABATA, HIROMI NAKAI
     NANJING UNIVERSITY: SHUHUA LI
     UNIVERSITY OF NEBRASKA:
          PEIFENG SU, DEJUN SI, NANDUN THELLAMUREGE, YALI WANG, HUI LI
     UNIVERSITY OF ZURICH: ROBERTO PEVERATI, KIM BALDRIDGE
     N. COPERNICUS UNIVERSITY AND JACKSON STATE UNIVERSITY:
          MARIA BARYSZ
     UNIVERSITY OF COPENHAGEN: CASPER STEINMANN
     TOKYO INSTITUTE OF TECHNOLOGY: HIROYA NAKATA
     NAGOYA UNIVERSITY: YOSHIO NISHIMOTO, STEPHAN IRLE

 EXECUTION OF GAMESS BEGUN Thu Mar 10 23:52:17 2016

            ECHO OF THE FIRST FEW INPUT CARDS -
 INPUT CARD>!   File created by MacMolPlt 7.6.2                                             
 INPUT CARD> $CONTRL SCFTYP=UHF RUNTYP=OPTIMIZE MAXIT=200 MULT=1 ICHARG=-1 $END             
 INPUT CARD> $BASIS GBASIS=N31 NGAUSS=6 NDFUNC=1 NPFUNC=1 $END                              
 INPUT CARD>! $SCF DIRSCF=.TRUE. $END                                                       
 INPUT CARD> $DATA                                                                          
 INPUT CARD>CH3OH                                                                           
 INPUT CARD>C1                                                                              
 INPUT CARD>C  6.0  0.00  0.00  0.00                                                        
 INPUT CARD>O  8.0  1.00  0.00  0.20                                                        
 INPUT CARD>H  1.0  -1.00  0.00  -1.00                                                      
 INPUT CARD>H  1.0  0.00  1.00  1.00                                                        
 INPUT CARD>H  1.0  0.00  -1.00  -1.00                                                      
 INPUT CARD> $END                                                                           
 INPUT CARD>!H  1.0  2.00  0.00  1.00                                                       
    1000000 WORDS OF MEMORY AVAILABLE

     BASIS OPTIONS
     -------------
     GBASIS=N31          IGAUSS=       6      POLAR=POPN31  
     NDFUNC=       1     NFFUNC=       0     DIFFSP=       F
     NPFUNC=       1      DIFFS=       F     BASNAM=        


     RUN TITLE
     ---------
 CH3OH                                                                           

 THE POINT GROUP OF THE MOLECULE IS C1      
 THE ORDER OF THE PRINCIPAL AXIS IS     0

 ATOM      ATOMIC                      COORDINATES (BOHR)
           CHARGE         X                   Y                   Z
 C           6.0     0.0000000000        0.0000000000        0.0000000000
 O           8.0     1.8897259877        0.0000000000        0.3779451975
 H           1.0    -1.8897259877        0.0000000000       -1.8897259877
 H           1.0     0.0000000000        1.8897259877        1.8897259877
 H           1.0     0.0000000000       -1.8897259877       -1.8897259877

          INTERNUCLEAR DISTANCES (ANGS.)
          ------------------------------

                1 C          2 O          3 H          4 H          5 H     

   1 C       0.0000000    1.0198039 *  1.4142136 *  1.4142136 *  1.4142136 *
   2 O       1.0198039 *  0.0000000    2.3323808 *  1.6248077 *  1.8547237 *
   3 H       1.4142136 *  2.3323808 *  0.0000000    2.4494897 *  1.4142136 *
   4 H       1.4142136 *  1.6248077 *  2.4494897 *  0.0000000    2.8284271 *
   5 H       1.4142136 *  1.8547237 *  1.4142136 *  2.8284271 *  0.0000000  

  * ... LESS THAN  3.000


     ATOMIC BASIS SET
     ----------------
 THE CONTRACTED PRIMITIVE FUNCTIONS HAVE BEEN UNNORMALIZED
 THE CONTRACTED BASIS FUNCTIONS ARE NOW NORMALIZED TO UNITY

  SHELL TYPE  PRIMITIVE        EXPONENT          CONTRACTION COEFFICIENT(S)

 C         

      1   S       1          3047.5248800    0.001834737132
      1   S       2           457.3695180    0.014037322813
      1   S       3           103.9486850    0.068842622264
      1   S       4            29.2101553    0.232184443216
      1   S       5             9.2866630    0.467941348435
      1   S       6             3.1639270    0.362311985337

      2   L       7             7.8682723   -0.119332419775    0.068999066591
      2   L       8             1.8812885   -0.160854151696    0.316423960957
      2   L       9             0.5442493    1.143456437840    0.744308290898

      3   L      10             0.1687145    1.000000000000    1.000000000000

      4   D      11             0.8000000    1.000000000000

 O         

      5   S      12          5484.6716600    0.001831074430
      5   S      13           825.2349460    0.013950172200
      5   S      14           188.0469580    0.068445078098
      5   S      15            52.9645000    0.232714335992
      5   S      16            16.8975704    0.470192897984
      5   S      17             5.7996353    0.358520852987

      6   L      18            15.5396162   -0.110777549525    0.070874268231
      6   L      19             3.5999336   -0.148026262701    0.339752839147
      6   L      20             1.0137618    1.130767015354    0.727158577316

      7   L      21             0.2700058    1.000000000000    1.000000000000

      8   D      22             0.8000000    1.000000000000

 H         

      9   S      23            18.7311370    0.033494604338
      9   S      24             2.8253944    0.234726953484
      9   S      25             0.6401217    0.813757326146

     10   S      26             0.1612778    1.000000000000

     11   P      27             1.1000000    1.000000000000

 H         

     12   S      28            18.7311370    0.033494604338
     12   S      29             2.8253944    0.234726953484
     12   S      30             0.6401217    0.813757326146

     13   S      31             0.1612778    1.000000000000

     14   P      32             1.1000000    1.000000000000

 H         

     15   S      33            18.7311370    0.033494604338
     15   S      34             2.8253944    0.234726953484
     15   S      35             0.6401217    0.813757326146

     16   S      36             0.1612778    1.000000000000

     17   P      37             1.1000000    1.000000000000

 TOTAL NUMBER OF BASIS SET SHELLS             =   17
 NUMBER OF CARTESIAN GAUSSIAN BASIS FUNCTIONS =   45
 NUMBER OF ELECTRONS                          =   18
 CHARGE OF MOLECULE                           =   -1
 SPIN MULTIPLICITY                            =    1
 NUMBER OF OCCUPIED ORBITALS (ALPHA)          =    9
 NUMBER OF OCCUPIED ORBITALS (BETA )          =    9
 TOTAL NUMBER OF ATOMS                        =    5
 THE NUCLEAR REPULSION ENERGY IS       39.1229446530

     $CONTRL OPTIONS
     ---------------
 SCFTYP=UHF          RUNTYP=OPTIMIZE     EXETYP=RUN     
 MPLEVL=       0     CITYP =NONE         CCTYP =NONE         VBTYP =NONE    
 DFTTYP=NONE         TDDFT =NONE    
 MULT  =       1     ICHARG=      -1     NZVAR =       0     COORD =UNIQUE  
 PP    =NONE         RELWFN=NONE         LOCAL =NONE         NUMGRD=       F
 ISPHER=      -1     NOSYM =       0     MAXIT =     200     UNITS =ANGS    
 PLTORB=       F     MOLPLT=       F     AIMPAC=       F     FRIEND=        
 NPRINT=       7     IREST =       0     GEOM  =INPUT   
 NORMF =       0     NORMP =       0     ITOL  =      20     ICUT  =       9
 INTTYP=BEST         GRDTYP=BEST         QMTTOL= 1.0E-06

     $SYSTEM OPTIONS
     ---------------
  REPLICATED MEMORY=     1000000 WORDS (ON EVERY NODE).
 DISTRIBUTED MEMDDI=           0 MILLION WORDS IN AGGREGATE,
 MEMDDI DISTRIBUTED OVER   1 PROCESSORS IS           0 WORDS/PROCESSOR.
 TOTAL MEMORY REQUESTED ON EACH PROCESSOR=     1000000 WORDS.
 TIMLIM=      525600.00 MINUTES, OR     365.0 DAYS.
 PARALL= F  BALTYP=  DLB     KDIAG=    0  COREFL= F
 MXSEQ2=     300 MXSEQ3=     150  mem10=         0

          ----------------
          PROPERTIES INPUT
          ----------------

     MOMENTS            FIELD           POTENTIAL          DENSITY
 IEMOM =       1   IEFLD =       0   IEPOT =       0   IEDEN =       0
 WHERE =COMASS     WHERE =NUCLEI     WHERE =NUCLEI     WHERE =NUCLEI  
 OUTPUT=BOTH       OUTPUT=BOTH       OUTPUT=BOTH       OUTPUT=BOTH    
 IEMINT=       0   IEFINT=       0                     IEDINT=       0
                                                       MORB  =       0
          EXTRAPOLATION IN EFFECT
          SOSCF IN EFFECT
          DIIS or SOSCF will be reset if energy rises
 ORBITAL PRINTING OPTION: NPREO=     1    45     2     1

     -------------------------------
     INTEGRAL TRANSFORMATION OPTIONS
     -------------------------------
     NWORD  =            0
     CUTOFF = 1.0E-09     MPTRAN =       0
     DIRTRF =       F     AOINTS =DUP     

          ----------------------
          INTEGRAL INPUT OPTIONS
          ----------------------
 NOPK  =       1 NORDER=       0 SCHWRZ=       F

     ------------------------------------------
     THE POINT GROUP IS C1 , NAXIS= 0, ORDER= 1
     ------------------------------------------

     DIMENSIONS OF THE SYMMETRY SUBSPACES ARE
 A   =   45

 ..... DONE SETTING UP THE RUN .....
 STEP CPU TIME =     0.01 TOTAL CPU TIME =        0.0 (    0.0 MIN)
 TOTAL WALL CLOCK TIME=        0.0 SECONDS, CPU UTILIZATION IS 100.00%


          -----------------------------
          STATIONARY POINT LOCATION RUN
          -----------------------------

 OBTAINING INITIAL HESSIAN, HESS=GUESS   
 CARTESIAN COORDINATE OPTIMIZATION USING BADGER'S RULE FORCE CONSTANT GUESS

          PARAMETERS CONTROLLING GEOMETRY SEARCH ARE
          METHOD =QA                  UPHESS =BFGS    
          NNEG   =         0          NFRZ   =         0
          NSTEP  =        50          IFOLOW =         1
          HESS   =GUESS               RESTAR =         F
          IHREP  =         0          HSSEND =         F
          NPRT   =         0          NPUN   =         0
          OPTTOL = 1.000E-04          RMIN   = 1.500E-03
          RMAX   = 1.000E-01          RLIM   = 7.000E-02
          DXMAX  = 3.000E-01          PURIFY =         F
          MOVIE  =         F          TRUPD  =         T
          TRMAX  = 5.000E-01          TRMIN  = 5.000E-02
          ITBMAT =         5          STPT   =         F
          STSTEP = 1.000E-02          PROJCT=          T

 BEGINNING GEOMETRY SEARCH POINT NSERCH=   0 ...

 COORDINATES OF ALL ATOMS ARE (ANGS)
   ATOM   CHARGE       X              Y              Z
 ------------------------------------------------------------
 C           6.0   0.0000000000   0.0000000000   0.0000000000
 O           8.0   1.0000000000   0.0000000000   0.2000000000
 H           1.0  -1.0000000000   0.0000000000  -1.0000000000
 H           1.0   0.0000000000   1.0000000000   1.0000000000
 H           1.0   0.0000000000  -1.0000000000  -1.0000000000

          ********************
          1 ELECTRON INTEGRALS
          ********************
 ...... END OF ONE-ELECTRON INTEGRALS ......
 STEP CPU TIME =     0.00 TOTAL CPU TIME =        0.0 (    0.0 MIN)
 TOTAL WALL CLOCK TIME=        0.0 SECONDS, CPU UTILIZATION IS 100.00%

          -------------
          GUESS OPTIONS
          -------------
          GUESS =HUCKEL            NORB  =       0          NORDER=       0
          MIX   =       F          PRTMO =       F          PUNMO =       F
          TOLZ  = 1.0E-08          TOLE  = 1.0E-05
          SYMDEN=       F          PURIFY=       F

 INITIAL GUESS ORBITALS GENERATED BY HUCKEL   ROUTINE.
 HUCKEL GUESS REQUIRES     19133 WORDS.

 SYMMETRIES FOR INITIAL GUESS ORBITALS FOLLOW.  ALPHA SET(S).
     9 ORBITALS ARE OCCUPIED (    2 CORE ORBITALS).
     3=A        4=A        5=A        6=A        7=A        8=A        9=A   
    10=A       11=A       12=A       13=A       14=A       15=A       16=A   
    17=A       18=A       19=A   

 SYMMETRIES FOR INITIAL GUESS ORBITALS FOLLOW.   BETA SET(S).
     9 ORBITALS ARE OCCUPIED (    2 CORE ORBITALS).
     3=A        4=A        5=A        6=A        7=A        8=A        9=A   
    10=A       11=A       12=A       13=A       14=A       15=A       16=A   
    17=A       18=A       19=A   
 ...... END OF INITIAL ORBITAL SELECTION ......
 STEP CPU TIME =     0.00 TOTAL CPU TIME =        0.0 (    0.0 MIN)
 TOTAL WALL CLOCK TIME=        0.0 SECONDS, CPU UTILIZATION IS  50.00%

                    ----------------------
                    AO INTEGRAL TECHNOLOGY
                    ----------------------
     S,P,L SHELL ROTATED AXIS INTEGRALS, REPROGRAMMED BY
        KAZUYA ISHIMURA (IMS) AND JOSE SIERRA (SYNSTAR).
     S,P,D,L SHELL ROTATED AXIS INTEGRALS PROGRAMMED BY
        KAZUYA ISHIMURA (INSTITUTE FOR MOLECULAR SCIENCE).
     S,P,D,F,G SHELL TO TOTAL QUARTET ANGULAR MOMENTUM SUM 5,
        ERIC PROGRAM BY GRAHAM FLETCHER (ELORET AND NASA ADVANCED
        SUPERCOMPUTING DIVISION, AMES RESEARCH CENTER).
     S,P,D,F,G,L SHELL GENERAL RYS QUADRATURE PROGRAMMED BY
        MICHEL DUPUIS (PACIFIC NORTHWEST NATIONAL LABORATORY).

          --------------------
          2 ELECTRON INTEGRALS
          --------------------

 THE -PK- OPTION IS OFF, THE INTEGRALS ARE NOT IN SUPERMATRIX FORM.
 STORING   15000 INTEGRALS/RECORD ON DISK, USING 12 BYTES/INTEGRAL.
 TWO ELECTRON INTEGRAL EVALUATION REQUIRES   90549 WORDS OF MEMORY.
 II,JST,KST,LST =  1  1  1  1 NREC =         1 INTLOC =    1
 II,JST,KST,LST =  2  1  1  1 NREC =         1 INTLOC =    2
 II,JST,KST,LST =  3  1  1  1 NREC =         1 INTLOC =   34
 II,JST,KST,LST =  4  1  1  1 NREC =         1 INTLOC =  214
 II,JST,KST,LST =  5  1  1  1 NREC =         1 INTLOC = 1189
 II,JST,KST,LST =  6  1  1  1 NREC =         1 INTLOC = 2365
 II,JST,KST,LST =  7  1  1  1 NREC =         1 INTLOC = 9260
 II,JST,KST,LST =  8  1  1  1 NREC =         2 INTLOC = 6299
 II,JST,KST,LST =  9  1  1  1 NREC =         4 INTLOC = 7026
 II,JST,KST,LST = 10  1  1  1 NREC =         5 INTLOC =  388
 II,JST,KST,LST = 11  1  1  1 NREC =         5 INTLOC = 9684
 II,JST,KST,LST = 12  1  1  1 NREC =         7 INTLOC =10048
 II,JST,KST,LST = 13  1  1  1 NREC =         9 INTLOC = 2403
 II,JST,KST,LST = 14  1  1  1 NREC =        10 INTLOC =11615
 II,JST,KST,LST = 15  1  1  1 NREC =        16 INTLOC = 5172
 II,JST,KST,LST = 16  1  1  1 NREC =        18 INTLOC = 7240
 II,JST,KST,LST = 17  1  1  1 NREC =        20 INTLOC =11742
 TOTAL NUMBER OF NONZERO TWO-ELECTRON INTEGRALS =              411425
         28 INTEGRAL RECORDS WERE STORED ON DISK FILE  8.
  ...... END OF TWO-ELECTRON INTEGRALS .....
 STEP CPU TIME =     0.05 TOTAL CPU TIME =        0.1 (    0.0 MIN)
 TOTAL WALL CLOCK TIME=        0.1 SECONDS, CPU UTILIZATION IS 100.00%

          ---------------------------
                  UHF SCF CALCULATION
          ---------------------------

     NUCLEAR ENERGY =        39.1229446530
     MAXIT =200     NPUNCH=  2     MULT=  1
     EXTRAP=T  DAMP=F  SHIFT=F  RSTRCT=F  DIIS=F  SOSCF=T
     DENSITY MATRIX CONV=  1.00E-05
     SOSCF WILL OPTIMIZE     324 ALPHA AND     324 BETA ROTATION ANGLES.
     SOGTOL= 2.500E-01
     MEMORY REQUIRED FOR UHF/ROHF ITERS=     55506 WORDS.

 ITER EX      TOTAL ENERGY        E CHANGE  DENSITY CHANGE    ORB. GRAD 
   1  0     -113.3115777937  -113.3115777937   0.564091453   0.000000000
          ---------------START SECOND ORDER SCF---------------
   2  1     -113.9610475514    -0.6494697577   0.286132844   0.035323138
   3  2     -113.9926917568    -0.0316442054   0.066042446   0.020146927
   4  3     -114.0003230433    -0.0076312865   0.033466338   0.006767878
   5  4     -114.0014751677    -0.0011521244   0.029733042   0.004098360
   6  5     -114.0019036594    -0.0004284917   0.013212944   0.001690304
   7  6     -114.0019860644    -0.0000824051   0.008399287   0.000778202
   8  7     -114.0020158363    -0.0000297719   0.003520454   0.000416343
   9  8     -114.0020207004    -0.0000048641   0.001348185   0.000158441
  10  9     -114.0020215440    -0.0000008436   0.000448861   0.000068147
  11 10     -114.0020217202    -0.0000001762   0.000093325   0.000035495
  12 11     -114.0020217389    -0.0000000187   0.000043722   0.000008774
  13 12     -114.0020217405    -0.0000000016   0.000015874   0.000002008
  14 13     -114.0020217406    -0.0000000001   0.000006142   0.000000722
  15 14     -114.0020217406    -0.0000000000   0.000001626   0.000000176

          -----------------
          DENSITY CONVERGED
          -----------------
     TIME TO FORM FOCK OPERATORS=       0.1 SECONDS (       0.0 SEC/ITER)
     TIME TO SOLVE SCF EQUATIONS=       0.0 SECONDS (       0.0 SEC/ITER)

 FINAL UHF ENERGY IS     -114.0020217406 AFTER  15 ITERATIONS

          --------------------
          SPIN SZ   =    0.000
          S-SQUARED =   -0.000
          --------------------

  ----- ALPHA SET ----- 

          ------------
          EIGENVECTORS
          ------------

                      1          2          3          4          5
                  -20.3195   -11.1239    -1.3076    -0.5324    -0.4907
                     A          A          A          A          A   
    1  C  1  S   -0.000108   0.995463  -0.137429   0.142820  -0.018066
    2  C  1  S   -0.000752   0.026275   0.248854  -0.290044   0.032826
    3  C  1  X   -0.001147   0.001833   0.241694   0.000657   0.015069
    4  C  1  Y   -0.000023  -0.000414   0.001093   0.022583   0.209491
    5  C  1  Z   -0.000221   0.000271   0.049731   0.066740   0.244904
    6  C  1  S   -0.001623  -0.003660   0.071361  -0.232827  -0.005955
    7  C  1  X   -0.001032   0.001401  -0.014595   0.063511  -0.018313
    8  C  1  Y   -0.000018   0.000339   0.000559   0.000203   0.053119
    9  C  1  Z   -0.000340   0.000975  -0.006994   0.030133   0.059535
   10  C  1 XX   -0.001135  -0.000853   0.032556  -0.002569  -0.007727
   11  C  1 YY    0.000188  -0.002717  -0.025762   0.007059  -0.003996
   12  C  1 ZZ    0.000131  -0.002574  -0.023070   0.002847   0.005667
   13  C  1 XY   -0.000003  -0.000040   0.000526   0.002051   0.022211
   14  C  1 XZ   -0.000306   0.000611   0.013375  -0.003624   0.022531
   15  C  1 YZ   -0.000029   0.000097  -0.000652  -0.005753   0.005262
   16  O  2  S    0.994448  -0.001357  -0.200160  -0.105447   0.030039
   17  O  2  S    0.021983   0.000796   0.420025   0.241445  -0.073870
   18  O  2  X   -0.002313  -0.001384  -0.185728   0.351728  -0.202065
   19  O  2  Y    0.000061   0.000116   0.003968   0.032396   0.297846
   20  O  2  Z   -0.000612  -0.000243  -0.032606   0.139051   0.299952
   21  O  2  S    0.007017  -0.002849   0.287488   0.397636  -0.108327
   22  O  2  X   -0.000968   0.001848  -0.018692   0.187129  -0.118194
   23  O  2  Y   -0.000009  -0.000055   0.003803   0.023616   0.169095
   24  O  2  Z   -0.000076   0.000014   0.001341   0.077015   0.170912
   25  O  2 XX   -0.003247   0.000780   0.023227  -0.017182   0.014255
   26  O  2 YY   -0.004628  -0.000352  -0.003600   0.006667  -0.001888
   27  O  2 ZZ   -0.004553  -0.000275  -0.002422   0.003653  -0.012112
   28  O  2 XY   -0.000053  -0.000083  -0.001065  -0.002252  -0.020276
   29  O  2 XZ    0.000287   0.000384   0.005292  -0.012016  -0.018278
   30  O  2 YZ    0.000144  -0.000109  -0.000963   0.000759  -0.000969
   31  H  3  S   -0.000000   0.000041   0.006770  -0.106732  -0.043585
   32  H  3  S   -0.000159   0.001011  -0.008910  -0.074510  -0.032105
   33  H  3  X    0.000039  -0.000254   0.002760  -0.008933  -0.004168
   34  H  3  Y   -0.000003   0.000029  -0.000044   0.001208   0.002741
   35  H  3  Z    0.000045  -0.000232   0.001874  -0.007060  -0.001547
   36  H  4  S   -0.000034  -0.000121   0.020238  -0.036027   0.114773
   37  H  4  S   -0.000005   0.000493   0.001086  -0.024014   0.105596
   38  H  4  X    0.000009  -0.000003   0.001200   0.002114   0.002018
   39  H  4  Y   -0.000007   0.000205  -0.002402   0.004158  -0.006487
   40  H  4  Z   -0.000008   0.000194  -0.002105   0.004026  -0.005517
   41  H  5  S   -0.000060   0.000062   0.012325  -0.084512  -0.087691
   42  H  5  S   -0.000024   0.000686   0.000697  -0.063238  -0.085115
   43  H  5  X   -0.000010  -0.000004  -0.000332   0.002766   0.001090
   44  H  5  Y   -0.000037  -0.000212   0.002019  -0.006932  -0.004054
   45  H  5  Z   -0.000043  -0.000179   0.001798  -0.005227  -0.003002

                      6          7          8          9         10
                   -0.4245    -0.3901    -0.0725     0.0273     0.3521
                     A          A          A          A          A   
    1  C  1  S   -0.032601  -0.027264  -0.028271   0.028660  -0.114196
    2  C  1  S    0.057067   0.053245   0.043880  -0.059063   0.148081
    3  C  1  X   -0.330525  -0.207580  -0.101671   0.036698  -0.248427
    4  C  1  Y    0.149554  -0.221385   0.080315  -0.112450  -0.065107
    5  C  1  Z   -0.136207   0.185375   0.094965   0.016084   0.061330
    6  C  1  S    0.211209   0.127921   0.192100  -0.125890   0.996470
    7  C  1  X   -0.064831  -0.058511  -0.089736   0.089171  -0.406111
    8  C  1  Y    0.045816  -0.084470   0.102545  -0.152913  -0.121181
    9  C  1  Z   -0.043532   0.084701   0.113838   0.027480   0.069030
   10  C  1 XX   -0.011027  -0.021022  -0.007587  -0.028062  -0.014822
   11  C  1 YY    0.013009   0.007999   0.006631   0.028729  -0.004759
   12  C  1 ZZ    0.019256   0.021346  -0.004477   0.012706  -0.012875
   13  C  1 XY    0.018216  -0.029590  -0.024032   0.010374   0.014680
   14  C  1 XZ   -0.001975   0.029581  -0.035942  -0.022138  -0.010559
   15  C  1 YZ    0.011352  -0.001784   0.000070   0.031871  -0.005596
   16  O  2  S   -0.021203  -0.001926   0.016263   0.027750   0.000278
   17  O  2  S    0.050317   0.009049  -0.035443  -0.057421  -0.024660
   18  O  2  X    0.346730   0.067646   0.109991   0.047312   0.079830
   19  O  2  Y    0.213267  -0.313538  -0.280461   0.145121   0.171862
   20  O  2  Z    0.021049   0.364477  -0.315719  -0.015672  -0.042161
   21  O  2  S    0.154308   0.036549  -0.073865  -0.186016   0.122108
   22  O  2  X    0.183470   0.028088   0.093879   0.051028   0.067544
   23  O  2  Y    0.133297  -0.207656  -0.278947   0.171669   0.232412
   24  O  2  Z    0.003982   0.233146  -0.317630  -0.025774  -0.060120
   25  O  2 XX   -0.025756   0.001339  -0.004724  -0.001870  -0.010297
   26  O  2 YY    0.010652   0.002631   0.002389   0.006527  -0.006701
   27  O  2 ZZ    0.009444  -0.004309   0.005588   0.004917  -0.008639
   28  O  2 XY   -0.014900   0.026332   0.009216  -0.004695  -0.003593
   29  O  2 XZ   -0.000516  -0.027453   0.008759  -0.000566  -0.001820
   30  O  2 YZ   -0.001576   0.005571   0.001688   0.006316  -0.005597
   31  H  3  S    0.153267   0.047279  -0.102438  -0.175747  -0.122336
   32  H  3  S    0.159530   0.050827  -0.207688  -0.518735  -0.833759
   33  H  3  X    0.008145   0.001457  -0.006182  -0.000565  -0.002243
   34  H  3  Y    0.000672  -0.002176   0.006119  -0.011591  -0.002676
   35  H  3  Z    0.009006   0.003425   0.000281  -0.009686   0.006099
   36  H  4  S    0.079834   0.032966   0.203491   0.133713  -0.122068
   37  H  4  S    0.105472   0.042837   0.444142   0.420672  -0.696835
   38  H  4  X   -0.000908  -0.002568  -0.008577   0.001808  -0.002701
   39  H  4  Y   -0.002871  -0.004876  -0.006792  -0.003246  -0.002188
   40  H  4  Z   -0.005055   0.001261  -0.007537  -0.002870  -0.000484
   41  H  5  S    0.055117   0.046213  -0.130950   0.238947  -0.024080
   42  H  5  S    0.040399   0.050043  -0.245437   0.739085  -0.126528
   43  H  5  X   -0.003467  -0.002627   0.007081  -0.001777  -0.001623
   44  H  5  Y    0.005022   0.001737  -0.007744   0.008410  -0.001419
   45  H  5  Z    0.001510   0.004029  -0.004018   0.008999   0.003537

                     11         12         13         14         15
                    0.4786     0.5286     0.6945     0.9513     1.1020
                     A          A          A          A          A   
    1  C  1  S    0.045721   0.015242   0.013150   0.010645   0.003358
    2  C  1  S   -0.075534  -0.026383  -0.004926  -0.115735  -0.375897
    3  C  1  X    0.051002  -0.028486  -0.055901   0.266194   0.515832
    4  C  1  Y   -0.234866   0.346005   0.099367   0.700715  -0.468342
    5  C  1  Z    0.263740   0.312159  -0.095518  -0.695086  -0.213752
    6  C  1  S   -0.774344  -0.078149  -3.095742   0.631872   1.477493
    7  C  1  X   -0.175674   0.098272  -2.781965   0.203132  -0.327227
    8  C  1  Y   -0.557201   1.062554   0.054013  -0.716053   0.991101
    9  C  1  Z    0.685728   1.094459  -0.850794   0.857889   0.566587
   10  C  1 XX    0.012260  -0.001460  -0.009784  -0.001318  -0.045882
   11  C  1 YY   -0.004751   0.002439   0.022711  -0.030515  -0.071622
   12  C  1 ZZ   -0.006795  -0.001204   0.013897  -0.021777  -0.123769
   13  C  1 XY    0.010269   0.003203  -0.004099   0.004498   0.008954
   14  C  1 XZ   -0.007031   0.000403  -0.003776   0.004119  -0.014466
   15  C  1 YZ   -0.002295   0.002118   0.017049  -0.018370  -0.092049
   16  O  2  S   -0.020864  -0.001630  -0.117357   0.015271   0.018201
   17  O  2  S    0.015491   0.014992  -0.035754  -0.020616  -0.035687
   18  O  2  X    0.002262   0.022315  -0.014473  -0.039741  -0.189799
   19  O  2  Y    0.192992  -0.105907  -0.033705   0.017112   0.067258
   20  O  2  Z   -0.249641  -0.075936   0.040818  -0.029953   0.154808
   21  O  2  S    0.347888  -0.134357   3.621769  -0.536811  -0.568562
   22  O  2  X   -0.042064   0.079196  -1.016048   0.235671   0.648062
   23  O  2  Y    0.362526  -0.316891  -0.104003  -0.024948  -0.163568
   24  O  2  Z   -0.485455  -0.281885  -0.117708   0.069592  -0.033011
   25  O  2 XX   -0.002033   0.006953  -0.011581  -0.048949  -0.074104
   26  O  2 YY   -0.013390   0.000096  -0.101659   0.000929  -0.014148
   27  O  2 ZZ   -0.011150   0.001149  -0.099898   0.030358   0.000957
   28  O  2 XY   -0.000325  -0.007956  -0.006718  -0.070266   0.083883
   29  O  2 XZ    0.006237  -0.005501   0.028800   0.064167   0.050576
   30  O  2 YZ   -0.000052  -0.000278   0.014859  -0.024770  -0.038129
   31  H  3  S    0.042945  -0.053407   0.043100   0.000368  -0.409462
   32  H  3  S    0.848985   0.265634  -1.107113   0.258202  -0.041794
   33  H  3  X   -0.012484  -0.004012  -0.012396   0.008141  -0.037157
   34  H  3  Y   -0.008249   0.006632  -0.008447   0.002572   0.035845
   35  H  3  Z    0.001237   0.000939   0.000637   0.014556  -0.009929
   36  H  4  S   -0.002387   0.010132   0.005211  -0.047333  -0.497620
   37  H  4  S    0.150523  -1.131154   0.662962  -0.075939  -0.246442
   38  H  4  X    0.000007  -0.008022  -0.005760   0.001724  -0.027417
   39  H  4  Y   -0.002622   0.001664  -0.008386   0.002862   0.062477
   40  H  4  Z    0.005640  -0.000996  -0.015156   0.012770   0.039282
   41  H  5  S   -0.044321   0.010628   0.055976  -0.066311  -0.125463
   42  H  5  S   -0.101362   1.245686   0.650807  -0.085510   0.480298
   43  H  5  X    0.000501   0.006558   0.006505  -0.003475   0.030860
   44  H  5  Y   -0.004205   0.002114   0.009366  -0.007071  -0.018477
   45  H  5  Z    0.003315   0.004284   0.012477  -0.006778   0.007734

                     16         17         18         19         20
                    1.1215     1.2008     1.2355     1.3024     1.4612
                     A          A          A          A          A   
    1  C  1  S   -0.041050  -0.000334   0.055521   0.035936  -0.013003
    2  C  1  S    0.052103  -1.157347   0.310698   0.965900  -0.195099
    3  C  1  X   -0.259311   0.443742   0.193261   0.426375   0.010905
    4  C  1  Y   -0.461041  -0.033457  -0.383107   0.038392   0.162501
    5  C  1  Z   -0.659673   0.125103  -0.255767   0.081547   0.048611
    6  C  1  S   -1.178487   2.171326   0.277053  -0.473080   0.298331
    7  C  1  X    0.099211  -0.499664  -0.047867  -0.243962  -0.115192
    8  C  1  Y    0.969729   0.006857   0.822888  -0.094021  -0.786610
    9  C  1  Z    1.290906  -0.328308   0.721800  -0.080565  -0.376286
   10  C  1 XX   -0.068240  -0.165435   0.144088   0.023945  -0.005494
   11  C  1 YY    0.094890  -0.015324  -0.075425   0.101356  -0.001209
   12  C  1 ZZ    0.063910  -0.008351   0.013179   0.058355  -0.065155
   13  C  1 XY   -0.001838  -0.009340  -0.008026  -0.018171  -0.141439
   14  C  1 XZ   -0.065208   0.003931   0.107898  -0.044395  -0.031161
   15  C  1 YZ    0.061802   0.098539   0.001427   0.154983  -0.095326
   16  O  2  S   -0.015784   0.004628  -0.003478   0.015145  -0.002737
   17  O  2  S    0.084403   0.082195  -0.210422  -0.369691  -0.013870
   18  O  2  X    0.260664   0.117340  -0.222083  -0.208834   0.001248
   19  O  2  Y   -0.011161  -0.031486  -0.055462  -0.070090  -0.893567
   20  O  2  Z    0.014449   0.039100  -0.154240  -0.101066  -0.075443
   21  O  2  S    0.508436  -0.217718  -0.037306   0.434940   0.097938
   22  O  2  X   -0.802412  -0.126901   0.652313   1.024310  -0.093557
   23  O  2  Y   -0.014509   0.054224   0.102473   0.041274   1.330582
   24  O  2  Z   -0.159204   0.026924   0.199396   0.275482   0.226172
   25  O  2 XX    0.087649   0.062987  -0.156692  -0.061417  -0.020358
   26  O  2 YY    0.017228   0.034400  -0.061830  -0.169743   0.013926
   27  O  2 ZZ    0.045657   0.023020  -0.061575  -0.168987  -0.007892
   28  O  2 XY    0.042500  -0.015410   0.032245  -0.025983  -0.014028
   29  O  2 XZ    0.077554  -0.006575  -0.001647   0.017076  -0.010214
   30  O  2 YZ    0.036510   0.015593   0.029334   0.052257  -0.027657
   31  H  3  S   -0.413394   0.277443   0.767626  -0.344861  -0.205242
   32  H  3  S    0.941036  -0.708590  -0.911791   0.499434  -0.011012
   33  H  3  X    0.029961  -0.029562   0.022092   0.006454  -0.013064
   34  H  3  Y   -0.008016  -0.010267  -0.004677  -0.037760  -0.021142
   35  H  3  Z    0.017519  -0.050068   0.033722  -0.002237  -0.002512
   36  H  4  S    0.447260   0.571825   0.412150   0.315367  -0.023456
   37  H  4  S   -1.094688  -0.917572  -0.893401  -0.189471   0.058725
   38  H  4  X   -0.004815  -0.004295   0.018769  -0.005238   0.056866
   39  H  4  Y    0.017412   0.001585   0.012607  -0.040812   0.012097
   40  H  4  Z    0.019623  -0.005521   0.027806  -0.046025  -0.015070
   41  H  5  S    0.045816   0.431867  -0.493091   0.551184  -0.133264
   42  H  5  S    0.575537  -0.797482   1.250076  -0.584512  -0.124099
   43  H  5  X    0.013954  -0.004143  -0.028418  -0.014108  -0.051746
   44  H  5  Y    0.050720  -0.006621   0.029287   0.033706  -0.046838
   45  H  5  Z    0.055037  -0.008591   0.006793   0.031967  -0.044555

                     21         22         23         24         25
                    1.4795     1.5882     1.6120     1.8550     1.9191
                     A          A          A          A          A   
    1  C  1  S    0.006829   0.072298   0.029475  -0.045859  -0.032727
    2  C  1  S   -0.098133  -0.212240  -0.556112  -0.169013  -0.366257
    3  C  1  X   -0.011275  -0.524877  -0.305491  -0.017162   0.025253
    4  C  1  Y   -0.152263  -0.103592   0.088230  -0.034332   0.014435
    5  C  1  Z    0.018682  -0.346557   0.211894  -0.027647   0.118203
    6  C  1  S    0.522084  -0.428803   0.155531  -2.204218  -1.622028
    7  C  1  X    0.276123   0.393170  -0.562119  -1.296570  -1.440677
    8  C  1  Y    0.540008   0.539926  -0.475440   0.156398  -0.100108
    9  C  1  Z   -0.051344   1.242106  -1.340268  -0.208179  -0.762194
   10  C  1 XX    0.069813   0.235026   0.212114  -0.147972  -0.085608
   11  C  1 YY   -0.034391  -0.169530  -0.031304   0.458082  -0.360527
   12  C  1 ZZ   -0.036465  -0.017858  -0.319081  -0.264980   0.438847
   13  C  1 XY   -0.001599  -0.064851   0.077464  -0.063329  -0.038515
   14  C  1 XZ   -0.124965   0.169970  -0.041663  -0.026908  -0.235471
   15  C  1 YZ   -0.028254   0.126967   0.030151   0.116415   0.142183
   16  O  2  S    0.006399  -0.066730  -0.065975  -0.049865  -0.047758
   17  O  2  S    0.168983  -0.175472  -0.232290  -1.106697  -0.922540
   18  O  2  X    0.165453  -0.403703  -0.334680   0.134747   0.048872
   19  O  2  Y    0.066112  -0.104216   0.155284   0.007173   0.000552
   20  O  2  Z   -0.798831   0.162694  -0.301310   0.020905  -0.034245
   21  O  2  S   -0.637785   0.685450   1.408266   3.793090   3.431472
   22  O  2  X   -0.135869  -0.079980  -0.235270  -1.066888  -0.899773
   23  O  2  Y   -0.180437  -0.001691  -0.132821  -0.044763   0.011328
   24  O  2  Z    1.051602  -0.707941   0.683013  -0.189412   0.059391
   25  O  2 XX    0.031253  -0.342439  -0.322266  -0.317239  -0.284635
   26  O  2 YY    0.047251  -0.032863   0.005028  -0.014525  -0.505882
   27  O  2 ZZ    0.064619  -0.003289  -0.091718  -0.453834   0.131832
   28  O  2 XY    0.038161   0.024958  -0.061876  -0.016917  -0.039496
   29  O  2 XZ    0.010953  -0.078447  -0.064695   0.079407  -0.054872
   30  O  2 YZ   -0.036783   0.015638   0.038752   0.152501   0.205601
   31  H  3  S    0.232692   0.194891  -0.632236   0.254732  -0.127188
   32  H  3  S   -0.260804   0.437065  -0.038318  -0.343667  -0.393483
   33  H  3  X    0.024869   0.022706  -0.057596  -0.192243   0.000264
   34  H  3  Y    0.009743  -0.019306   0.009272   0.022968  -0.020393
   35  H  3  Z   -0.012539   0.087508   0.055108   0.019518  -0.015746
   36  H  4  S   -0.421753  -0.236470   0.533214  -0.286737  -0.123551
   37  H  4  S   -0.027070  -0.310646  -0.070062   0.257192   0.282122
   38  H  4  X    0.006682   0.014942   0.071734   0.107300   0.068579
   39  H  4  Y   -0.008833  -0.004760   0.047847   0.014000  -0.218605
   40  H  4  Z    0.023818   0.036037  -0.015412  -0.186020   0.046885
   41  H  5  S    0.405956   0.782387  -0.341823  -0.025914  -0.250670
   42  H  5  S   -0.023225  -0.234868  -0.309064   0.290256   0.178973
   43  H  5  X   -0.035231   0.013820   0.005059   0.108185   0.102713
   44  H  5  Y   -0.012465   0.037658  -0.082472  -0.055777   0.145450
   45  H  5  Z   -0.031976   0.000445  -0.001764   0.167501  -0.034059

                     26         27         28         29         30
                    2.0734     2.1064     2.1799     2.3235     2.4682
                     A          A          A          A          A   
    1  C  1  S    0.007235  -0.042369  -0.009363   0.028526  -0.006707
    2  C  1  S   -0.129682   0.025005  -0.096805  -0.172300  -0.011456
    3  C  1  X    0.099846  -0.113946   0.114991  -0.081992  -0.017960
    4  C  1  Y   -0.244240  -0.030333   0.159976   0.211568  -0.020358
    5  C  1  Z   -0.134997   0.019412  -0.104351   0.075328   0.021381
    6  C  1  S   -0.330170  -2.531587  -0.727549  -0.703318  -0.431037
    7  C  1  X   -0.281507  -1.487621  -0.615214  -0.441537  -0.420976
    8  C  1  Y    0.465172   0.064401  -0.201912  -0.128255  -0.026299
    9  C  1  Z    0.270542  -0.418322  -0.258861  -0.248727   0.001210
   10  C  1 XX   -0.155288  -0.111725  -0.186584  -0.113626   0.000055
   11  C  1 YY    0.067341   0.033972   0.045794   0.079733  -0.289431
   12  C  1 ZZ    0.107474   0.130611   0.150130   0.106901   0.287087
   13  C  1 XY    0.438520   0.149853  -0.334679  -0.237096   0.030166
   14  C  1 XZ    0.266623  -0.099475   0.405109  -0.034017  -0.189376
   15  C  1 YZ    0.065861  -0.427015  -0.193110   0.209932  -0.217814
   16  O  2  S    0.000397  -0.064009  -0.015375  -0.016757  -0.007776
   17  O  2  S   -0.193269  -1.056980  -0.337189  -0.237852  -0.172498
   18  O  2  X    0.050662   0.030904   0.090050  -0.104153  -0.040780
   19  O  2  Y   -0.126253   0.022839   0.186310   0.101678   0.012226
   20  O  2  Z   -0.113805   0.046999  -0.232139  -0.067518   0.071214
   21  O  2  S    0.567904   4.080587   1.278088   1.176875   0.784862
   22  O  2  X   -0.153508  -1.009256  -0.315322  -0.274980  -0.141159
   23  O  2  Y   -0.218414  -0.091561  -0.000375  -0.018232  -0.003506
   24  O  2  Z   -0.136889  -0.202890   0.030576   0.037226  -0.121168
   25  O  2 XX   -0.000786  -0.267808   0.063716  -0.212172  -0.080424
   26  O  2 YY    0.055416  -0.334595  -0.061433   0.175482   0.634570
   27  O  2 ZZ   -0.128528  -0.161437  -0.202635  -0.134214  -0.634329
   28  O  2 XY   -0.290245   0.039184   0.224201   0.392953  -0.093441
   29  O  2 XZ   -0.220544   0.001688  -0.349815   0.046081   0.201301
   30  O  2 YZ   -0.102351  -0.509770   0.118628  -0.352639   0.224674
   31  H  3  S   -0.113648   0.072384  -0.277606  -0.065025  -0.015463
   32  H  3  S    0.013885  -0.278575   0.047757  -0.073287  -0.048607
   33  H  3  X    0.191624  -0.115283   0.162380   0.204166   0.215046
   34  H  3  Y   -0.267913   0.019223   0.232720  -0.340711   0.085552
   35  H  3  Z    0.030714   0.041254   0.159599  -0.151490  -0.155259
   36  H  4  S   -0.233624   0.292034   0.075340  -0.007686   0.082371
   37  H  4  S    0.006745   0.053646   0.103258   0.123739  -0.047290
   38  H  4  X    0.164109  -0.018439   0.120727  -0.350478   0.134628
   39  H  4  Y   -0.047084   0.128543  -0.048389   0.005980  -0.037111
   40  H  4  Z   -0.081911   0.144154   0.071183  -0.104752   0.148961
   41  H  5  S   -0.053943   0.283620  -0.019283  -0.174080   0.110831
   42  H  5  S    0.250561   0.070020  -0.014963   0.086523  -0.051608
   43  H  5  X   -0.305349  -0.002739   0.040537  -0.213377   0.102562
   44  H  5  Y    0.130734  -0.112115  -0.062590   0.275504   0.186006
   45  H  5  Z   -0.003088  -0.102822   0.002590  -0.008149  -0.312954

                     31         32         33         34         35
                    2.6183     2.6481     2.7324     2.8767     2.9419
                     A          A          A          A          A   
    1  C  1  S    0.020680   0.042848  -0.008949   0.025993  -0.048724
    2  C  1  S    0.070419  -0.003869   0.007772   0.069638  -0.032392
    3  C  1  X   -0.161947  -0.107512   0.000075   0.080026   0.025976
    4  C  1  Y    0.021552  -0.100267   0.016397  -0.000663   0.016888
    5  C  1  Z   -0.132821   0.002186   0.047390   0.223221  -0.038749
    6  C  1  S   -0.407343  -0.543160   0.266461  -0.219459   0.355177
    7  C  1  X   -0.466219  -0.403837   0.114986   0.343494  -0.035688
    8  C  1  Y    0.030713  -0.169203   0.321564   0.015438   0.367101
    9  C  1  Z    0.110007  -0.318925  -0.064848   0.232160   0.187396
   10  C  1 XX   -0.228144  -0.163069  -0.022884   0.017888   0.191029
   11  C  1 YY    0.295388   0.088496   0.174616  -0.327052  -0.349428
   12  C  1 ZZ   -0.084292   0.143731  -0.174197   0.438153  -0.001697
   13  C  1 XY   -0.023635   0.037544   0.001548   0.018379  -0.276420
   14  C  1 XZ   -0.124642  -0.032757  -0.009079   0.056544  -0.223574
   15  C  1 YZ   -0.308725   0.170692  -0.203356  -0.088005   0.190096
   16  O  2  S    0.005346   0.002984   0.005147   0.007157  -0.007229
   17  O  2  S    0.026256   0.058687  -0.009426  -0.139311  -0.000235
   18  O  2  X   -0.256168  -0.191366  -0.002220   0.109530   0.069001
   19  O  2  Y    0.076320  -0.109901   0.064212   0.025301   0.132005
   20  O  2  Z    0.032362  -0.055433   0.065786   0.029978   0.121832
   21  O  2  S    0.638715   0.507694  -0.133105  -0.111687  -0.153248
   22  O  2  X    0.005558  -0.002370   0.031411  -0.007160  -0.016920
   23  O  2  Y   -0.079055   0.194114  -0.182929  -0.047631  -0.182548
   24  O  2  Z   -0.121547   0.065097  -0.041174  -0.214765  -0.054328
   25  O  2 XX   -0.092968  -0.103721  -0.045991  -0.211924   0.185689
   26  O  2 YY   -0.190838   0.181957   0.025576   0.200945   0.006281
   27  O  2 ZZ    0.343151  -0.011256   0.030634  -0.001448  -0.225706
   28  O  2 XY   -0.015880  -0.168726   0.076646   0.003727   0.035251
   29  O  2 XZ   -0.151812  -0.017214   0.052360   0.368843  -0.073296
   30  O  2 YZ    0.358928  -0.298068   0.315297   0.221592  -0.292293
   31  H  3  S    0.097067  -0.032471   0.044110  -0.014619   0.032916
   32  H  3  S   -0.171876  -0.141200  -0.087435   0.354179  -0.137328
   33  H  3  X    0.266495   0.200023  -0.119932   0.150929   0.021993
   34  H  3  Y    0.051753   0.557765  -0.367330   0.063519  -0.149301
   35  H  3  Z   -0.605611  -0.317222   0.018467   0.357125  -0.208417
   36  H  4  S    0.082937  -0.008538   0.027223  -0.011440  -0.035845
   37  H  4  S   -0.082336   0.221695  -0.139775   0.001737  -0.224245
   38  H  4  X    0.097833  -0.204429  -0.078575  -0.179129   0.677962
   39  H  4  Y    0.249417  -0.378279  -0.455106   0.248417   0.207661
   40  H  4  Z   -0.174784   0.148056   0.588166  -0.295957   0.192726
   41  H  5  S    0.146074  -0.124904   0.089417   0.093476  -0.027018
   42  H  5  S   -0.038636   0.125211  -0.062043  -0.092737   0.209480
   43  H  5  X   -0.234547   0.001843  -0.365261  -0.429271  -0.150791
   44  H  5  Y   -0.033431  -0.213304  -0.197900  -0.410952  -0.089045
   45  H  5  Z   -0.062501   0.338106   0.108706   0.280163   0.436680

                     36         37         38         39         40
                    2.9921     3.1210     3.2033     3.3590     3.4272
                     A          A          A          A          A   
    1  C  1  S   -0.001781   0.020565   0.043048  -0.112438   0.133742
    2  C  1  S    0.028818  -0.153005   0.148611   0.123708  -0.301442
    3  C  1  X    0.167490  -0.090657  -0.003268   0.175668  -0.255152
    4  C  1  Y   -0.067020   0.077243   0.083225   0.452379   0.353087
    5  C  1  Z    0.380700   0.228527   0.059880  -0.126156   0.105343
    6  C  1  S   -0.469840  -0.698038   0.245809  -0.069900  -0.378558
    7  C  1  X    0.154685  -0.263786   0.161384  -0.099561   0.039829
    8  C  1  Y    0.079893   0.536201   0.294961   0.391499   0.328828
    9  C  1  Z    0.626738   0.602876   0.347268   0.089925   0.290460
   10  C  1 XX    0.217087  -0.130830  -0.229999   0.372880  -0.253409
   11  C  1 YY    0.273842   0.137392   0.121433  -0.342196   0.434427
   12  C  1 ZZ   -0.369140   0.161767   0.151093  -0.455384   0.474679
   13  C  1 XY   -0.192031   0.199008  -0.032219   0.900212   0.689965
   14  C  1 XZ    0.290518   0.287423  -0.094575  -0.099818   0.050725
   15  C  1 YZ    0.105609  -0.171827   0.005363   0.402204  -0.191469
   16  O  2  S   -0.001888  -0.026502   0.002950  -0.003354  -0.010191
   17  O  2  S   -0.395445  -0.149787   0.299472  -0.709588   0.714264
   18  O  2  X    0.284081  -0.021464  -0.126636   0.363514  -0.391847
   19  O  2  Y    0.054481  -0.150923  -0.051464  -0.235428  -0.066381
   20  O  2  Z    0.145196  -0.173334  -0.081713   0.108365  -0.044312
   21  O  2  S    0.237802   0.868675  -0.505479   0.794527  -0.557581
   22  O  2  X   -0.138360  -0.197797   0.251120  -0.517560   0.448553
   23  O  2  Y    0.018674   0.043539   0.081047  -0.429693  -0.555941
   24  O  2  Z   -0.558770  -0.164300   0.117873   0.075330  -0.290706
   25  O  2 XX   -0.170760  -0.148256  -0.162715   0.195970  -0.126685
   26  O  2 YY   -0.239253  -0.102168   0.097708  -0.068922  -0.027049
   27  O  2 ZZ    0.342538   0.056382   0.028913  -0.160749   0.115751
   28  O  2 XY   -0.128482  -0.003698  -0.095170   0.895244   0.819829
   29  O  2 XZ    0.565596   0.297831  -0.115536  -0.274418   0.379101
   30  O  2 YZ   -0.131982   0.182868   0.106056   0.222041   0.050668
   31  H  3  S    0.075625   0.010658   0.092639   0.034981   0.056805
   32  H  3  S    0.366807   0.245316  -0.200746  -0.054774   0.073270
   33  H  3  X    0.530199   0.347804  -0.397647   0.111609  -0.040317
   34  H  3  Y    0.243691  -0.286328   0.376246   0.179890   0.067202
   35  H  3  Z    0.263277   0.002695   0.163305  -0.089981   0.128978
   36  H  4  S   -0.056665  -0.036946  -0.049345  -0.093074   0.029556
   37  H  4  S   -0.084386  -0.455506  -0.355850  -0.225914   0.180969
   38  H  4  X    0.226688  -0.170925  -0.073142  -0.132806   0.452771
   39  H  4  Y   -0.019040   0.363617   0.391616   0.218714  -0.330007
   40  H  4  Z    0.173528   0.339492   0.349926   0.230812  -0.237731
   41  H  5  S    0.085081   0.147257  -0.041651   0.041296   0.104421
   42  H  5  S    0.100476   0.367300   0.516017   0.071679   0.224767
   43  H  5  X   -0.181423   0.528573  -0.374707  -0.090577   0.031230
   44  H  5  Y    0.245694   0.173448   0.596500  -0.053553   0.187275
   45  H  5  Z   -0.170348   0.546775   0.193078  -0.038714   0.173765

                     41         42         43         44         45
                    3.6467     3.7425     4.1068     4.7128     4.8965
                     A          A          A          A          A   
    1  C  1  S   -0.168457  -0.213863   0.156028  -0.194052  -0.379933
    2  C  1  S    0.489971  -1.673851   2.001670   0.233841   2.970839
    3  C  1  X   -0.247126  -1.105055   1.435506  -0.170351  -0.320881
    4  C  1  Y    0.033809  -0.029635   0.002430  -0.013862   0.002556
    5  C  1  Z    0.291784  -0.143728   0.352385  -0.041943  -0.075673
    6  C  1  S    0.933087  -1.445905   0.486996  -3.119628   1.287820
    7  C  1  X   -0.275776  -0.665879   0.157648  -2.001211   0.376618
    8  C  1  Y    0.009696  -0.000984   0.029775   0.009777  -0.003779
    9  C  1  Z   -0.051141  -0.139526   0.048243  -0.549668   0.054479
   10  C  1 XX   -0.882085   0.179651   0.877697  -0.509922  -2.015598
   11  C  1 YY   -0.455473  -0.200705  -0.670050  -0.426136  -1.550912
   12  C  1 ZZ    0.057738  -0.005248  -0.414902  -0.484842  -1.695167
   13  C  1 XY    0.053295  -0.057902   0.006836   0.000244   0.000400
   14  C  1 XZ    0.918714   0.314423   0.596135  -0.102476  -0.317985
   15  C  1 YZ    0.415403  -0.376319  -0.381585   0.010923  -0.178657
   16  O  2  S    0.013892  -0.031545  -0.074517  -0.569477   0.189117
   17  O  2  S    0.096279  -0.778579  -0.366283  -0.617133   0.589607
   18  O  2  X   -0.066256  -0.153211   0.943341   0.165358  -0.444199
   19  O  2  Y   -0.016637   0.018049   0.023861  -0.010334   0.010274
   20  O  2  Z   -0.267413  -0.107868   0.130253   0.024831  -0.036602
   21  O  2  S    0.024968   2.962653  -1.223734   8.250751  -1.915313
   22  O  2  X    0.008573  -1.672217   1.144264  -1.981160   0.234238
   23  O  2  Y   -0.053564   0.055323  -0.028069   0.028791  -0.007488
   24  O  2  Z   -0.332247  -0.389993   0.119372  -0.263418   0.093513
   25  O  2 XX   -0.207292   1.094902  -1.392586  -1.445764   0.504523
   26  O  2 YY    0.042600  -0.481494   0.202884  -2.018064   0.570010
   27  O  2 ZZ    0.244488  -0.388258   0.179686  -2.017998   0.550180
   28  O  2 XY    0.105650  -0.106761  -0.001971  -0.027104   0.003383
   29  O  2 XZ    0.764405   0.555114  -0.152773   0.036897  -0.118599
   30  O  2 YZ   -0.035142   0.059833   0.015918   0.017699   0.004905
   31  H  3  S   -0.165678  -0.069119  -0.090732   0.012849   0.086837
   32  H  3  S   -0.305910  -0.187609  -0.121502  -0.305197   0.003575
   33  H  3  X   -0.389792  -0.186720  -0.229651   0.171551   0.166103
   34  H  3  Y   -0.017722   0.084235   0.018001   0.031142  -0.013037
   35  H  3  Z   -0.401617  -0.249585  -0.297053  -0.010205   0.252058
   36  H  4  S   -0.081868   0.003470   0.155276  -0.037747   0.087513
   37  H  4  S   -0.157900   0.148467   0.057264   0.071534  -0.070741
   38  H  4  X    0.123147  -0.184898   0.016924  -0.174767   0.053233
   39  H  4  Y    0.206739  -0.179890  -0.254064   0.047352  -0.190029
   40  H  4  Z    0.214431  -0.225699  -0.257584   0.033983  -0.173281
   41  H  5  S   -0.088026   0.074738   0.135073   0.007666   0.049204
   42  H  5  S   -0.187440   0.201616   0.115314   0.102844  -0.063565
   43  H  5  X   -0.004919  -0.164675   0.007027  -0.077734   0.037531
   44  H  5  Y   -0.242065   0.326118   0.293869  -0.027485   0.171242
   45  H  5  Z   -0.309005   0.247442   0.272841  -0.041169   0.188072

  ----- BETA SET ----- 

          ------------
          EIGENVECTORS
          ------------

                      1          2          3          4          5
                  -20.3195   -11.1239    -1.3076    -0.5324    -0.4907
                     A          A          A          A          A   
    1  C  1  S   -0.000108   0.995463  -0.137429   0.142820  -0.018066
    2  C  1  S   -0.000752   0.026275   0.248854  -0.290044   0.032826
    3  C  1  X   -0.001147   0.001833   0.241694   0.000657   0.015069
    4  C  1  Y   -0.000023  -0.000414   0.001093   0.022583   0.209491
    5  C  1  Z   -0.000221   0.000271   0.049731   0.066740   0.244904
    6  C  1  S   -0.001623  -0.003660   0.071361  -0.232827  -0.005955
    7  C  1  X   -0.001032   0.001401  -0.014595   0.063511  -0.018313
    8  C  1  Y   -0.000018   0.000339   0.000559   0.000203   0.053119
    9  C  1  Z   -0.000340   0.000975  -0.006994   0.030133   0.059535
   10  C  1 XX   -0.001135  -0.000853   0.032556  -0.002569  -0.007727
   11  C  1 YY    0.000188  -0.002717  -0.025762   0.007059  -0.003996
   12  C  1 ZZ    0.000131  -0.002574  -0.023070   0.002847   0.005667
   13  C  1 XY   -0.000003  -0.000040   0.000526   0.002051   0.022211
   14  C  1 XZ   -0.000306   0.000611   0.013375  -0.003624   0.022531
   15  C  1 YZ   -0.000029   0.000097  -0.000652  -0.005753   0.005262
   16  O  2  S    0.994448  -0.001357  -0.200160  -0.105447   0.030039
   17  O  2  S    0.021983   0.000796   0.420025   0.241445  -0.073870
   18  O  2  X   -0.002313  -0.001384  -0.185728   0.351728  -0.202065
   19  O  2  Y    0.000061   0.000116   0.003968   0.032396   0.297846
   20  O  2  Z   -0.000612  -0.000243  -0.032606   0.139051   0.299952
   21  O  2  S    0.007017  -0.002849   0.287488   0.397636  -0.108327
   22  O  2  X   -0.000968   0.001848  -0.018692   0.187129  -0.118194
   23  O  2  Y   -0.000009  -0.000055   0.003803   0.023616   0.169095
   24  O  2  Z   -0.000076   0.000014   0.001341   0.077015   0.170912
   25  O  2 XX   -0.003247   0.000780   0.023227  -0.017182   0.014255
   26  O  2 YY   -0.004628  -0.000352  -0.003600   0.006667  -0.001888
   27  O  2 ZZ   -0.004553  -0.000275  -0.002422   0.003653  -0.012112
   28  O  2 XY   -0.000053  -0.000083  -0.001065  -0.002252  -0.020276
   29  O  2 XZ    0.000287   0.000384   0.005292  -0.012016  -0.018278
   30  O  2 YZ    0.000144  -0.000109  -0.000963   0.000759  -0.000969
   31  H  3  S   -0.000000   0.000041   0.006770  -0.106732  -0.043585
   32  H  3  S   -0.000159   0.001011  -0.008910  -0.074510  -0.032105
   33  H  3  X    0.000039  -0.000254   0.002760  -0.008933  -0.004168
   34  H  3  Y   -0.000003   0.000029  -0.000044   0.001208   0.002741
   35  H  3  Z    0.000045  -0.000232   0.001874  -0.007060  -0.001547
   36  H  4  S   -0.000034  -0.000121   0.020238  -0.036027   0.114773
   37  H  4  S   -0.000005   0.000493   0.001086  -0.024014   0.105596
   38  H  4  X    0.000009  -0.000003   0.001200   0.002114   0.002018
   39  H  4  Y   -0.000007   0.000205  -0.002402   0.004158  -0.006487
   40  H  4  Z   -0.000008   0.000194  -0.002105   0.004026  -0.005517
   41  H  5  S   -0.000060   0.000062   0.012325  -0.084512  -0.087691
   42  H  5  S   -0.000024   0.000686   0.000697  -0.063238  -0.085115
   43  H  5  X   -0.000010  -0.000004  -0.000332   0.002766   0.001090
   44  H  5  Y   -0.000037  -0.000212   0.002019  -0.006932  -0.004054
   45  H  5  Z   -0.000043  -0.000179   0.001798  -0.005227  -0.003002

                      6          7          8          9         10
                   -0.4245    -0.3901    -0.0725     0.0273     0.3521
                     A          A          A          A          A   
    1  C  1  S   -0.032601  -0.027264  -0.028271   0.028660  -0.114196
    2  C  1  S    0.057067   0.053245   0.043880  -0.059063   0.148081
    3  C  1  X   -0.330525  -0.207580  -0.101671   0.036698  -0.248427
    4  C  1  Y    0.149554  -0.221385   0.080315  -0.112450  -0.065107
    5  C  1  Z   -0.136207   0.185375   0.094965   0.016084   0.061330
    6  C  1  S    0.211209   0.127921   0.192100  -0.125890   0.996470
    7  C  1  X   -0.064831  -0.058511  -0.089736   0.089171  -0.406111
    8  C  1  Y    0.045816  -0.084470   0.102545  -0.152913  -0.121181
    9  C  1  Z   -0.043532   0.084701   0.113838   0.027480   0.069030
   10  C  1 XX   -0.011027  -0.021022  -0.007587  -0.028062  -0.014822
   11  C  1 YY    0.013009   0.007999   0.006631   0.028729  -0.004759
   12  C  1 ZZ    0.019256   0.021346  -0.004477   0.012706  -0.012875
   13  C  1 XY    0.018216  -0.029590  -0.024032   0.010374   0.014680
   14  C  1 XZ   -0.001975   0.029581  -0.035942  -0.022138  -0.010559
   15  C  1 YZ    0.011352  -0.001784   0.000070   0.031871  -0.005596
   16  O  2  S   -0.021203  -0.001926   0.016263   0.027750   0.000278
   17  O  2  S    0.050317   0.009049  -0.035443  -0.057421  -0.024660
   18  O  2  X    0.346730   0.067646   0.109991   0.047312   0.079830
   19  O  2  Y    0.213267  -0.313538  -0.280461   0.145121   0.171862
   20  O  2  Z    0.021049   0.364477  -0.315719  -0.015672  -0.042161
   21  O  2  S    0.154308   0.036549  -0.073865  -0.186016   0.122108
   22  O  2  X    0.183470   0.028088   0.093879   0.051028   0.067544
   23  O  2  Y    0.133297  -0.207656  -0.278947   0.171669   0.232412
   24  O  2  Z    0.003982   0.233146  -0.317630  -0.025774  -0.060120
   25  O  2 XX   -0.025756   0.001339  -0.004724  -0.001870  -0.010297
   26  O  2 YY    0.010652   0.002631   0.002389   0.006527  -0.006701
   27  O  2 ZZ    0.009444  -0.004309   0.005588   0.004917  -0.008639
   28  O  2 XY   -0.014900   0.026332   0.009216  -0.004695  -0.003593
   29  O  2 XZ   -0.000516  -0.027453   0.008759  -0.000566  -0.001820
   30  O  2 YZ   -0.001576   0.005571   0.001688   0.006316  -0.005597
   31  H  3  S    0.153267   0.047279  -0.102438  -0.175747  -0.122336
   32  H  3  S    0.159530   0.050827  -0.207688  -0.518735  -0.833759
   33  H  3  X    0.008145   0.001457  -0.006182  -0.000565  -0.002243
   34  H  3  Y    0.000672  -0.002176   0.006119  -0.011591  -0.002676
   35  H  3  Z    0.009006   0.003425   0.000281  -0.009686   0.006099
   36  H  4  S    0.079834   0.032966   0.203491   0.133713  -0.122068
   37  H  4  S    0.105472   0.042837   0.444142   0.420672  -0.696835
   38  H  4  X   -0.000908  -0.002568  -0.008577   0.001808  -0.002701
   39  H  4  Y   -0.002871  -0.004876  -0.006792  -0.003246  -0.002188
   40  H  4  Z   -0.005055   0.001261  -0.007537  -0.002870  -0.000484
   41  H  5  S    0.055117   0.046213  -0.130950   0.238947  -0.024080
   42  H  5  S    0.040399   0.050043  -0.245437   0.739085  -0.126528
   43  H  5  X   -0.003467  -0.002627   0.007081  -0.001777  -0.001623
   44  H  5  Y    0.005022   0.001737  -0.007744   0.008410  -0.001419
   45  H  5  Z    0.001510   0.004029  -0.004018   0.008999   0.003537

                     11         12         13         14         15
                    0.4786     0.5286     0.6945     0.9513     1.1020
                     A          A          A          A          A   
    1  C  1  S    0.045721   0.015242   0.013150   0.010645   0.003358
    2  C  1  S   -0.075534  -0.026383  -0.004926  -0.115735  -0.375897
    3  C  1  X    0.051002  -0.028486  -0.055901   0.266194   0.515832
    4  C  1  Y   -0.234866   0.346005   0.099367   0.700715  -0.468342
    5  C  1  Z    0.263740   0.312159  -0.095518  -0.695086  -0.213752
    6  C  1  S   -0.774344  -0.078149  -3.095742   0.631872   1.477493
    7  C  1  X   -0.175674   0.098272  -2.781965   0.203132  -0.327227
    8  C  1  Y   -0.557201   1.062554   0.054013  -0.716053   0.991101
    9  C  1  Z    0.685728   1.094459  -0.850794   0.857889   0.566587
   10  C  1 XX    0.012260  -0.001460  -0.009784  -0.001318  -0.045882
   11  C  1 YY   -0.004751   0.002439   0.022711  -0.030515  -0.071622
   12  C  1 ZZ   -0.006795  -0.001204   0.013897  -0.021777  -0.123769
   13  C  1 XY    0.010269   0.003203  -0.004099   0.004498   0.008954
   14  C  1 XZ   -0.007031   0.000403  -0.003776   0.004119  -0.014466
   15  C  1 YZ   -0.002295   0.002118   0.017049  -0.018370  -0.092049
   16  O  2  S   -0.020864  -0.001630  -0.117357   0.015271   0.018201
   17  O  2  S    0.015491   0.014992  -0.035754  -0.020616  -0.035687
   18  O  2  X    0.002262   0.022315  -0.014473  -0.039741  -0.189799
   19  O  2  Y    0.192992  -0.105907  -0.033705   0.017112   0.067258
   20  O  2  Z   -0.249641  -0.075936   0.040818  -0.029953   0.154808
   21  O  2  S    0.347888  -0.134357   3.621769  -0.536811  -0.568562
   22  O  2  X   -0.042064   0.079196  -1.016048   0.235671   0.648062
   23  O  2  Y    0.362526  -0.316891  -0.104003  -0.024948  -0.163568
   24  O  2  Z   -0.485455  -0.281885  -0.117708   0.069592  -0.033011
   25  O  2 XX   -0.002033   0.006953  -0.011581  -0.048949  -0.074104
   26  O  2 YY   -0.013390   0.000096  -0.101659   0.000929  -0.014148
   27  O  2 ZZ   -0.011150   0.001149  -0.099898   0.030358   0.000957
   28  O  2 XY   -0.000325  -0.007956  -0.006718  -0.070266   0.083883
   29  O  2 XZ    0.006237  -0.005501   0.028800   0.064167   0.050576
   30  O  2 YZ   -0.000052  -0.000278   0.014859  -0.024770  -0.038129
   31  H  3  S    0.042945  -0.053407   0.043100   0.000368  -0.409462
   32  H  3  S    0.848985   0.265634  -1.107113   0.258202  -0.041794
   33  H  3  X   -0.012484  -0.004012  -0.012396   0.008141  -0.037157
   34  H  3  Y   -0.008249   0.006632  -0.008447   0.002572   0.035845
   35  H  3  Z    0.001237   0.000939   0.000637   0.014556  -0.009929
   36  H  4  S   -0.002387   0.010132   0.005211  -0.047333  -0.497620
   37  H  4  S    0.150523  -1.131154   0.662962  -0.075939  -0.246442
   38  H  4  X    0.000007  -0.008022  -0.005760   0.001724  -0.027417
   39  H  4  Y   -0.002622   0.001664  -0.008386   0.002862   0.062477
   40  H  4  Z    0.005640  -0.000996  -0.015156   0.012770   0.039282
   41  H  5  S   -0.044321   0.010628   0.055976  -0.066311  -0.125463
   42  H  5  S   -0.101362   1.245686   0.650807  -0.085510   0.480298
   43  H  5  X    0.000501   0.006558   0.006505  -0.003475   0.030860
   44  H  5  Y   -0.004205   0.002114   0.009366  -0.007071  -0.018477
   45  H  5  Z    0.003315   0.004284   0.012477  -0.006778   0.007734

                     16         17         18         19         20
                    1.1215     1.2008     1.2355     1.3024     1.4612
                     A          A          A          A          A   
    1  C  1  S   -0.041050  -0.000334   0.055521   0.035936  -0.013003
    2  C  1  S    0.052103  -1.157347   0.310698   0.965900  -0.195099
    3  C  1  X   -0.259311   0.443742   0.193261   0.426375   0.010905
    4  C  1  Y   -0.461041  -0.033457  -0.383107   0.038392   0.162501
    5  C  1  Z   -0.659673   0.125103  -0.255767   0.081547   0.048611
    6  C  1  S   -1.178487   2.171326   0.277053  -0.473080   0.298331
    7  C  1  X    0.099211  -0.499664  -0.047867  -0.243962  -0.115192
    8  C  1  Y    0.969729   0.006857   0.822888  -0.094021  -0.786610
    9  C  1  Z    1.290906  -0.328308   0.721800  -0.080565  -0.376286
   10  C  1 XX   -0.068240  -0.165435   0.144088   0.023945  -0.005494
   11  C  1 YY    0.094890  -0.015324  -0.075425   0.101356  -0.001209
   12  C  1 ZZ    0.063910  -0.008351   0.013179   0.058355  -0.065155
   13  C  1 XY   -0.001838  -0.009340  -0.008026  -0.018171  -0.141439
   14  C  1 XZ   -0.065208   0.003931   0.107898  -0.044395  -0.031161
   15  C  1 YZ    0.061802   0.098539   0.001427   0.154983  -0.095326
   16  O  2  S   -0.015784   0.004628  -0.003478   0.015145  -0.002737
   17  O  2  S    0.084403   0.082195  -0.210422  -0.369691  -0.013870
   18  O  2  X    0.260664   0.117340  -0.222083  -0.208834   0.001248
   19  O  2  Y   -0.011161  -0.031486  -0.055462  -0.070090  -0.893567
   20  O  2  Z    0.014449   0.039100  -0.154240  -0.101066  -0.075443
   21  O  2  S    0.508436  -0.217718  -0.037306   0.434940   0.097938
   22  O  2  X   -0.802412  -0.126901   0.652313   1.024310  -0.093557
   23  O  2  Y   -0.014509   0.054224   0.102473   0.041274   1.330582
   24  O  2  Z   -0.159204   0.026924   0.199396   0.275482   0.226172
   25  O  2 XX    0.087649   0.062987  -0.156692  -0.061417  -0.020358
   26  O  2 YY    0.017228   0.034400  -0.061830  -0.169743   0.013926
   27  O  2 ZZ    0.045657   0.023020  -0.061575  -0.168987  -0.007892
   28  O  2 XY    0.042500  -0.015410   0.032245  -0.025983  -0.014028
   29  O  2 XZ    0.077554  -0.006575  -0.001647   0.017076  -0.010214
   30  O  2 YZ    0.036510   0.015593   0.029334   0.052257  -0.027657
   31  H  3  S   -0.413394   0.277443   0.767626  -0.344861  -0.205242
   32  H  3  S    0.941036  -0.708590  -0.911791   0.499434  -0.011012
   33  H  3  X    0.029961  -0.029562   0.022092   0.006454  -0.013064
   34  H  3  Y   -0.008016  -0.010267  -0.004677  -0.037760  -0.021142
   35  H  3  Z    0.017519  -0.050068   0.033722  -0.002237  -0.002512
   36  H  4  S    0.447260   0.571825   0.412150   0.315367  -0.023456
   37  H  4  S   -1.094688  -0.917572  -0.893401  -0.189471   0.058725
   38  H  4  X   -0.004815  -0.004295   0.018769  -0.005238   0.056866
   39  H  4  Y    0.017412   0.001585   0.012607  -0.040812   0.012097
   40  H  4  Z    0.019623  -0.005521   0.027806  -0.046025  -0.015070
   41  H  5  S    0.045816   0.431867  -0.493091   0.551184  -0.133264
   42  H  5  S    0.575537  -0.797482   1.250076  -0.584512  -0.124099
   43  H  5  X    0.013954  -0.004143  -0.028418  -0.014108  -0.051746
   44  H  5  Y    0.050720  -0.006621   0.029287   0.033706  -0.046838
   45  H  5  Z    0.055037  -0.008591   0.006793   0.031967  -0.044555

                     21         22         23         24         25
                    1.4795     1.5882     1.6120     1.8550     1.9191
                     A          A          A          A          A   
    1  C  1  S    0.006829   0.072298   0.029475  -0.045859  -0.032727
    2  C  1  S   -0.098133  -0.212240  -0.556112  -0.169013  -0.366257
    3  C  1  X   -0.011275  -0.524877  -0.305491  -0.017162   0.025253
    4  C  1  Y   -0.152263  -0.103592   0.088230  -0.034332   0.014435
    5  C  1  Z    0.018682  -0.346557   0.211894  -0.027647   0.118203
    6  C  1  S    0.522084  -0.428803   0.155531  -2.204218  -1.622028
    7  C  1  X    0.276123   0.393170  -0.562119  -1.296570  -1.440677
    8  C  1  Y    0.540008   0.539926  -0.475440   0.156398  -0.100108
    9  C  1  Z   -0.051344   1.242106  -1.340268  -0.208179  -0.762194
   10  C  1 XX    0.069813   0.235026   0.212114  -0.147972  -0.085608
   11  C  1 YY   -0.034391  -0.169530  -0.031304   0.458082  -0.360527
   12  C  1 ZZ   -0.036465  -0.017858  -0.319081  -0.264980   0.438847
   13  C  1 XY   -0.001599  -0.064851   0.077464  -0.063329  -0.038515
   14  C  1 XZ   -0.124965   0.169970  -0.041663  -0.026908  -0.235471
   15  C  1 YZ   -0.028254   0.126967   0.030151   0.116415   0.142183
   16  O  2  S    0.006399  -0.066730  -0.065975  -0.049865  -0.047758
   17  O  2  S    0.168983  -0.175472  -0.232290  -1.106697  -0.922540
   18  O  2  X    0.165453  -0.403703  -0.334680   0.134747   0.048872
   19  O  2  Y    0.066112  -0.104216   0.155284   0.007173   0.000552
   20  O  2  Z   -0.798831   0.162694  -0.301310   0.020905  -0.034245
   21  O  2  S   -0.637785   0.685450   1.408266   3.793090   3.431472
   22  O  2  X   -0.135869  -0.079980  -0.235270  -1.066888  -0.899773
   23  O  2  Y   -0.180437  -0.001691  -0.132821  -0.044763   0.011328
   24  O  2  Z    1.051602  -0.707941   0.683013  -0.189412   0.059391
   25  O  2 XX    0.031253  -0.342439  -0.322266  -0.317239  -0.284635
   26  O  2 YY    0.047251  -0.032863   0.005028  -0.014525  -0.505882
   27  O  2 ZZ    0.064619  -0.003289  -0.091718  -0.453834   0.131832
   28  O  2 XY    0.038161   0.024958  -0.061876  -0.016917  -0.039496
   29  O  2 XZ    0.010953  -0.078447  -0.064695   0.079407  -0.054872
   30  O  2 YZ   -0.036783   0.015638   0.038752   0.152501   0.205601
   31  H  3  S    0.232692   0.194891  -0.632236   0.254732  -0.127188
   32  H  3  S   -0.260804   0.437065  -0.038318  -0.343667  -0.393483
   33  H  3  X    0.024869   0.022706  -0.057596  -0.192243   0.000264
   34  H  3  Y    0.009743  -0.019306   0.009272   0.022968  -0.020393
   35  H  3  Z   -0.012539   0.087508   0.055108   0.019518  -0.015746
   36  H  4  S   -0.421753  -0.236470   0.533214  -0.286737  -0.123551
   37  H  4  S   -0.027070  -0.310646  -0.070062   0.257192   0.282122
   38  H  4  X    0.006682   0.014942   0.071734   0.107300   0.068579
   39  H  4  Y   -0.008833  -0.004760   0.047847   0.014000  -0.218605
   40  H  4  Z    0.023818   0.036037  -0.015412  -0.186020   0.046885
   41  H  5  S    0.405956   0.782387  -0.341823  -0.025914  -0.250670
   42  H  5  S   -0.023225  -0.234868  -0.309064   0.290256   0.178973
   43  H  5  X   -0.035231   0.013820   0.005059   0.108185   0.102713
   44  H  5  Y   -0.012465   0.037658  -0.082472  -0.055777   0.145450
   45  H  5  Z   -0.031976   0.000445  -0.001764   0.167501  -0.034059

                     26         27         28         29         30
                    2.0734     2.1064     2.1799     2.3235     2.4682
                     A          A          A          A          A   
    1  C  1  S    0.007235  -0.042369  -0.009363   0.028526  -0.006707
    2  C  1  S   -0.129682   0.025005  -0.096805  -0.172300  -0.011456
    3  C  1  X    0.099846  -0.113946   0.114991  -0.081992  -0.017960
    4  C  1  Y   -0.244240  -0.030333   0.159976   0.211568  -0.020358
    5  C  1  Z   -0.134997   0.019412  -0.104351   0.075328   0.021381
    6  C  1  S   -0.330170  -2.531587  -0.727549  -0.703318  -0.431037
    7  C  1  X   -0.281507  -1.487621  -0.615214  -0.441537  -0.420976
    8  C  1  Y    0.465172   0.064401  -0.201912  -0.128255  -0.026299
    9  C  1  Z    0.270542  -0.418322  -0.258861  -0.248727   0.001210
   10  C  1 XX   -0.155288  -0.111725  -0.186584  -0.113626   0.000055
   11  C  1 YY    0.067341   0.033972   0.045794   0.079733  -0.289431
   12  C  1 ZZ    0.107474   0.130611   0.150130   0.106901   0.287087
   13  C  1 XY    0.438520   0.149853  -0.334679  -0.237096   0.030166
   14  C  1 XZ    0.266623  -0.099475   0.405109  -0.034017  -0.189376
   15  C  1 YZ    0.065861  -0.427015  -0.193110   0.209932  -0.217814
   16  O  2  S    0.000397  -0.064009  -0.015375  -0.016757  -0.007776
   17  O  2  S   -0.193269  -1.056980  -0.337189  -0.237852  -0.172498
   18  O  2  X    0.050662   0.030904   0.090050  -0.104153  -0.040780
   19  O  2  Y   -0.126253   0.022839   0.186310   0.101678   0.012226
   20  O  2  Z   -0.113805   0.046999  -0.232139  -0.067518   0.071214
   21  O  2  S    0.567904   4.080587   1.278088   1.176875   0.784862
   22  O  2  X   -0.153508  -1.009256  -0.315322  -0.274980  -0.141159
   23  O  2  Y   -0.218414  -0.091561  -0.000375  -0.018232  -0.003506
   24  O  2  Z   -0.136889  -0.202890   0.030576   0.037226  -0.121168
   25  O  2 XX   -0.000786  -0.267808   0.063716  -0.212172  -0.080424
   26  O  2 YY    0.055416  -0.334595  -0.061433   0.175482   0.634570
   27  O  2 ZZ   -0.128528  -0.161437  -0.202635  -0.134214  -0.634329
   28  O  2 XY   -0.290245   0.039184   0.224201   0.392953  -0.093441
   29  O  2 XZ   -0.220544   0.001688  -0.349815   0.046081   0.201301
   30  O  2 YZ   -0.102351  -0.509770   0.118628  -0.352639   0.224674
   31  H  3  S   -0.113648   0.072384  -0.277606  -0.065025  -0.015463
   32  H  3  S    0.013885  -0.278575   0.047757  -0.073287  -0.048607
   33  H  3  X    0.191624  -0.115283   0.162380   0.204166   0.215046
   34  H  3  Y   -0.267913   0.019223   0.232720  -0.340711   0.085552
   35  H  3  Z    0.030714   0.041254   0.159599  -0.151490  -0.155259
   36  H  4  S   -0.233624   0.292034   0.075340  -0.007686   0.082371
   37  H  4  S    0.006745   0.053646   0.103258   0.123739  -0.047290
   38  H  4  X    0.164109  -0.018439   0.120727  -0.350478   0.134628
   39  H  4  Y   -0.047084   0.128543  -0.048389   0.005980  -0.037111
   40  H  4  Z   -0.081911   0.144154   0.071183  -0.104752   0.148961
   41  H  5  S   -0.053943   0.283620  -0.019283  -0.174080   0.110831
   42  H  5  S    0.250561   0.070020  -0.014963   0.086523  -0.051608
   43  H  5  X   -0.305349  -0.002739   0.040537  -0.213377   0.102562
   44  H  5  Y    0.130734  -0.112115  -0.062590   0.275504   0.186006
   45  H  5  Z   -0.003088  -0.102822   0.002590  -0.008149  -0.312954

                     31         32         33         34         35
                    2.6183     2.6481     2.7324     2.8767     2.9419
                     A          A          A          A          A   
    1  C  1  S    0.020680   0.042848  -0.008949   0.025993  -0.048724
    2  C  1  S    0.070419  -0.003869   0.007772   0.069638  -0.032392
    3  C  1  X   -0.161947  -0.107512   0.000075   0.080026   0.025976
    4  C  1  Y    0.021552  -0.100267   0.016397  -0.000663   0.016888
    5  C  1  Z   -0.132821   0.002186   0.047390   0.223221  -0.038749
    6  C  1  S   -0.407343  -0.543160   0.266461  -0.219459   0.355177
    7  C  1  X   -0.466219  -0.403837   0.114986   0.343494  -0.035688
    8  C  1  Y    0.030713  -0.169203   0.321564   0.015438   0.367101
    9  C  1  Z    0.110007  -0.318925  -0.064848   0.232160   0.187396
   10  C  1 XX   -0.228144  -0.163069  -0.022884   0.017888   0.191029
   11  C  1 YY    0.295388   0.088496   0.174616  -0.327052  -0.349428
   12  C  1 ZZ   -0.084292   0.143731  -0.174197   0.438153  -0.001697
   13  C  1 XY   -0.023635   0.037544   0.001548   0.018379  -0.276420
   14  C  1 XZ   -0.124642  -0.032757  -0.009079   0.056544  -0.223574
   15  C  1 YZ   -0.308725   0.170692  -0.203356  -0.088005   0.190096
   16  O  2  S    0.005346   0.002984   0.005147   0.007157  -0.007229
   17  O  2  S    0.026256   0.058687  -0.009426  -0.139311  -0.000235
   18  O  2  X   -0.256168  -0.191366  -0.002220   0.109530   0.069001
   19  O  2  Y    0.076320  -0.109901   0.064212   0.025301   0.132005
   20  O  2  Z    0.032362  -0.055433   0.065786   0.029978   0.121832
   21  O  2  S    0.638715   0.507694  -0.133105  -0.111687  -0.153248
   22  O  2  X    0.005558  -0.002370   0.031411  -0.007160  -0.016920
   23  O  2  Y   -0.079055   0.194114  -0.182929  -0.047631  -0.182548
   24  O  2  Z   -0.121547   0.065097  -0.041174  -0.214765  -0.054328
   25  O  2 XX   -0.092968  -0.103721  -0.045991  -0.211924   0.185689
   26  O  2 YY   -0.190838   0.181957   0.025576   0.200945   0.006281
   27  O  2 ZZ    0.343151  -0.011256   0.030634  -0.001448  -0.225706
   28  O  2 XY   -0.015880  -0.168726   0.076646   0.003727   0.035251
   29  O  2 XZ   -0.151812  -0.017214   0.052360   0.368843  -0.073296
   30  O  2 YZ    0.358928  -0.298068   0.315297   0.221592  -0.292293
   31  H  3  S    0.097067  -0.032471   0.044110  -0.014619   0.032916
   32  H  3  S   -0.171876  -0.141200  -0.087435   0.354179  -0.137328
   33  H  3  X    0.266495   0.200023  -0.119932   0.150929   0.021993
   34  H  3  Y    0.051753   0.557765  -0.367330   0.063519  -0.149301
   35  H  3  Z   -0.605611  -0.317222   0.018467   0.357125  -0.208417
   36  H  4  S    0.082937  -0.008538   0.027223  -0.011440  -0.035845
   37  H  4  S   -0.082336   0.221695  -0.139775   0.001737  -0.224245
   38  H  4  X    0.097833  -0.204429  -0.078575  -0.179129   0.677962
   39  H  4  Y    0.249417  -0.378279  -0.455106   0.248417   0.207661
   40  H  4  Z   -0.174784   0.148056   0.588166  -0.295957   0.192726
   41  H  5  S    0.146074  -0.124904   0.089417   0.093476  -0.027018
   42  H  5  S   -0.038636   0.125211  -0.062043  -0.092737   0.209480
   43  H  5  X   -0.234547   0.001843  -0.365261  -0.429271  -0.150791
   44  H  5  Y   -0.033431  -0.213304  -0.197900  -0.410952  -0.089045
   45  H  5  Z   -0.062501   0.338106   0.108706   0.280163   0.436680

                     36         37         38         39         40
                    2.9921     3.1210     3.2033     3.3590     3.4272
                     A          A          A          A          A   
    1  C  1  S   -0.001781   0.020565   0.043048  -0.112438   0.133742
    2  C  1  S    0.028818  -0.153005   0.148611   0.123708  -0.301442
    3  C  1  X    0.167490  -0.090657  -0.003268   0.175668  -0.255152
    4  C  1  Y   -0.067020   0.077243   0.083225   0.452379   0.353087
    5  C  1  Z    0.380700   0.228527   0.059880  -0.126156   0.105343
    6  C  1  S   -0.469840  -0.698038   0.245809  -0.069900  -0.378558
    7  C  1  X    0.154685  -0.263786   0.161384  -0.099561   0.039829
    8  C  1  Y    0.079893   0.536201   0.294961   0.391499   0.328828
    9  C  1  Z    0.626738   0.602876   0.347268   0.089925   0.290460
   10  C  1 XX    0.217087  -0.130830  -0.229999   0.372880  -0.253409
   11  C  1 YY    0.273842   0.137392   0.121433  -0.342196   0.434427
   12  C  1 ZZ   -0.369140   0.161767   0.151093  -0.455384   0.474679
   13  C  1 XY   -0.192031   0.199008  -0.032219   0.900212   0.689965
   14  C  1 XZ    0.290518   0.287423  -0.094575  -0.099818   0.050725
   15  C  1 YZ    0.105609  -0.171827   0.005363   0.402204  -0.191469
   16  O  2  S   -0.001888  -0.026502   0.002950  -0.003354  -0.010191
   17  O  2  S   -0.395445  -0.149787   0.299472  -0.709588   0.714264
   18  O  2  X    0.284081  -0.021464  -0.126636   0.363514  -0.391847
   19  O  2  Y    0.054481  -0.150923  -0.051464  -0.235428  -0.066381
   20  O  2  Z    0.145196  -0.173334  -0.081713   0.108365  -0.044312
   21  O  2  S    0.237802   0.868675  -0.505479   0.794527  -0.557581
   22  O  2  X   -0.138360  -0.197797   0.251120  -0.517560   0.448553
   23  O  2  Y    0.018674   0.043539   0.081047  -0.429693  -0.555941
   24  O  2  Z   -0.558770  -0.164300   0.117873   0.075330  -0.290706
   25  O  2 XX   -0.170760  -0.148256  -0.162715   0.195970  -0.126685
   26  O  2 YY   -0.239253  -0.102168   0.097708  -0.068922  -0.027049
   27  O  2 ZZ    0.342538   0.056382   0.028913  -0.160749   0.115751
   28  O  2 XY   -0.128482  -0.003698  -0.095170   0.895244   0.819829
   29  O  2 XZ    0.565596   0.297831  -0.115536  -0.274418   0.379101
   30  O  2 YZ   -0.131982   0.182868   0.106056   0.222041   0.050668
   31  H  3  S    0.075625   0.010658   0.092639   0.034981   0.056805
   32  H  3  S    0.366807   0.245316  -0.200746  -0.054774   0.073270
   33  H  3  X    0.530199   0.347804  -0.397647   0.111609  -0.040317
   34  H  3  Y    0.243691  -0.286328   0.376246   0.179890   0.067202
   35  H  3  Z    0.263277   0.002695   0.163305  -0.089981   0.128978
   36  H  4  S   -0.056665  -0.036946  -0.049345  -0.093074   0.029556
   37  H  4  S   -0.084386  -0.455506  -0.355850  -0.225914   0.180969
   38  H  4  X    0.226688  -0.170925  -0.073142  -0.132806   0.452771
   39  H  4  Y   -0.019040   0.363617   0.391616   0.218714  -0.330007
   40  H  4  Z    0.173528   0.339492   0.349926   0.230812  -0.237731
   41  H  5  S    0.085081   0.147257  -0.041651   0.041296   0.104421
   42  H  5  S    0.100476   0.367300   0.516017   0.071679   0.224767
   43  H  5  X   -0.181423   0.528573  -0.374707  -0.090577   0.031230
   44  H  5  Y    0.245694   0.173448   0.596500  -0.053553   0.187275
   45  H  5  Z   -0.170348   0.546775   0.193078  -0.038714   0.173765

                     41         42         43         44         45
                    3.6467     3.7425     4.1068     4.7128     4.8965
                     A          A          A          A          A   
    1  C  1  S   -0.168457  -0.213863   0.156028  -0.194052  -0.379933
    2  C  1  S    0.489971  -1.673851   2.001670   0.233841   2.970839
    3  C  1  X   -0.247126  -1.105055   1.435506  -0.170351  -0.320881
    4  C  1  Y    0.033809  -0.029635   0.002430  -0.013862   0.002556
    5  C  1  Z    0.291784  -0.143728   0.352385  -0.041943  -0.075673
    6  C  1  S    0.933087  -1.445905   0.486996  -3.119628   1.287820
    7  C  1  X   -0.275776  -0.665879   0.157648  -2.001211   0.376618
    8  C  1  Y    0.009696  -0.000984   0.029775   0.009777  -0.003779
    9  C  1  Z   -0.051141  -0.139526   0.048243  -0.549668   0.054479
   10  C  1 XX   -0.882085   0.179651   0.877697  -0.509922  -2.015598
   11  C  1 YY   -0.455473  -0.200705  -0.670050  -0.426136  -1.550912
   12  C  1 ZZ    0.057738  -0.005248  -0.414902  -0.484842  -1.695167
   13  C  1 XY    0.053295  -0.057902   0.006836   0.000244   0.000400
   14  C  1 XZ    0.918714   0.314423   0.596135  -0.102476  -0.317985
   15  C  1 YZ    0.415403  -0.376319  -0.381585   0.010923  -0.178657
   16  O  2  S    0.013892  -0.031545  -0.074517  -0.569477   0.189117
[...]
   45  H  5  Z    0.000003  -0.000046  -0.000858  -0.002000  -0.003755

                      6          7          8          9         10
                   -0.3179    -0.2532    -0.0711    -0.0711     0.4693
                     A          A          A          A          A   
    1  C  1  S    0.000010   0.044895   0.000000  -0.000001   0.141101
    2  C  1  S   -0.000022  -0.111321  -0.000003  -0.000006  -0.056130
    3  C  1  X   -0.006286  -0.354366  -0.019010  -0.005994   0.187473
    4  C  1  Y    0.069571  -0.061914   0.110932   0.024233   0.032757
    5  C  1  Z    0.380403   0.005461   0.024907  -0.112540  -0.002892
    6  C  1  S   -0.000030  -0.096058   0.000012   0.000031  -2.509804
    7  C  1  X   -0.002637  -0.111279   0.007050   0.002202   0.781393
    8  C  1  Y    0.029380  -0.019430  -0.041210  -0.009001   0.136560
    9  C  1  Z    0.160650   0.001699  -0.009252   0.041785  -0.012136
   10  C  1 XX   -0.000052  -0.018368   0.012631   0.004223   0.013485
   11  C  1 YY   -0.010180   0.012473  -0.023327   0.000422   0.012786
   12  C  1 ZZ    0.010232   0.013438   0.010696  -0.004646   0.012765
   13  C  1 XY    0.000241  -0.006422  -0.040252  -0.009954   0.000144
   14  C  1 XZ   -0.012626   0.000571  -0.009023   0.046149  -0.000010
   15  C  1 YZ    0.011155   0.000097  -0.004931  -0.004006  -0.000003
   16  O  2  S   -0.000014  -0.073320   0.000001   0.000001   0.000692
   17  O  2  S    0.000027   0.136454  -0.000004  -0.000005  -0.012962
   18  O  2  X   -0.003872   0.464427   0.090280   0.028467  -0.051649
   19  O  2  Y    0.043812   0.081246  -0.526776  -0.115087  -0.009023
   20  O  2  Z    0.239515  -0.007281  -0.118253   0.534386   0.000793
   21  O  2  S    0.000058   0.383427   0.000003   0.000005   0.004552
   22  O  2  X   -0.002499   0.312603   0.080451   0.025366  -0.102628
   23  O  2  Y    0.028277   0.054687  -0.469435  -0.102562  -0.017933
   24  O  2  Z    0.154579  -0.004901  -0.105380   0.476222   0.001589
   25  O  2 XX    0.000462  -0.042581  -0.005822  -0.001814  -0.005643
   26  O  2 YY   -0.000703  -0.003078   0.005011   0.001585  -0.004084
   27  O  2 ZZ    0.000235  -0.001841   0.000809   0.000226  -0.004035
   28  O  2 XY   -0.002962  -0.008230   0.019116   0.004005  -0.000325
   29  O  2 XZ   -0.016167   0.000736   0.004512  -0.019611   0.000028
   30  O  2 YZ   -0.003050   0.000129   0.000115  -0.004586   0.000005
   31  H  3  S   -0.146776   0.056703   0.081966   0.155514  -0.007227
   32  H  3  S   -0.167170   0.084848   0.171437   0.325269   1.230059
   33  H  3  X   -0.004815  -0.003206   0.000177   0.001691   0.002355
   34  H  3  Y    0.006959  -0.002878   0.001825  -0.004926  -0.003576
   35  H  3  Z   -0.001082   0.002751   0.005013   0.002313   0.004612
   36  H  4  S    0.228356   0.056660   0.093698  -0.148734  -0.007247
   37  H  4  S    0.260087   0.084790   0.195986  -0.311098   1.230131
   38  H  4  X    0.005986  -0.003486  -0.000134  -0.001415   0.001878
   39  H  4  Y   -0.003095  -0.001819   0.003124   0.004068  -0.001756
   40  H  4  Z   -0.008261  -0.003267  -0.004380   0.003664  -0.005745
   41  H  5  S   -0.081578   0.056665  -0.175652  -0.006764  -0.007245
   42  H  5  S   -0.092914   0.084796  -0.367403  -0.014144   1.230148
   43  H  5  X   -0.001109  -0.004230   0.000096  -0.000232   0.000597
   44  H  5  Y   -0.004555   0.002788  -0.005768   0.000677   0.006174
   45  H  5  Z    0.005561   0.000685  -0.000815  -0.005146   0.001060

                     11         12         13         14         15
                    0.5665     0.5665     0.6402     1.0377     1.0378
                     A          A          A          A          A   
    1  C  1  S   -0.000017   0.000001  -0.060440  -0.000001   0.000006
    2  C  1  S    0.000004  -0.000004  -0.000794  -0.000023   0.000010
    3  C  1  X    0.044887  -0.050964   0.039602  -0.063874   0.110939
    4  C  1  Y   -0.228615   0.312222   0.006985   0.419375  -0.597064
    5  C  1  Z    0.316290   0.232903  -0.000683   0.607147   0.424126
    6  C  1  S    0.000521  -0.000007   1.520319   0.000014  -0.000120
    7  C  1  X    0.165491  -0.187774   1.888644   0.144514  -0.250662
    8  C  1  Y   -0.842258   1.150276   0.330459  -0.948413   1.350289
    9  C  1  Z    1.165265   0.858032  -0.029657  -1.372969  -0.959084
   10  C  1 XX   -0.003466   0.003949   0.014092   0.001437  -0.005505
   11  C  1 YY    0.003045  -0.003780   0.008518  -0.066191   0.034100
   12  C  1 ZZ    0.000426  -0.000170   0.008344   0.064741  -0.028591
   13  C  1 XY    0.009842  -0.013611   0.001158   0.000235   0.013557
   14  C  1 XZ   -0.013978  -0.010417  -0.000100  -0.023754  -0.026552
   15  C  1 YZ   -0.003137  -0.001650  -0.000019   0.029991   0.070368
   16  O  2  S    0.000017  -0.000002   0.104646   0.000002   0.000005
   17  O  2  S   -0.000011   0.000004  -0.009739  -0.000010   0.000007
   18  O  2  X   -0.016634   0.018928   0.181955  -0.013372   0.023189
   19  O  2  Y    0.084932  -0.115992   0.031802   0.087760  -0.124920
   20  O  2  Z   -0.117499  -0.086527  -0.002818   0.127025   0.088713
   21  O  2  S   -0.000253   0.000014  -2.023673  -0.000031  -0.000203
   22  O  2  X   -0.043084   0.049071   0.980260  -0.024688   0.042998
   23  O  2  Y    0.220187  -0.300690   0.171355   0.162216  -0.230912
   24  O  2  Z   -0.304597  -0.224298  -0.015211   0.234825   0.164028
   25  O  2 XX    0.000307  -0.000218  -0.002856   0.004275  -0.007980
   26  O  2 YY   -0.000658   0.004285   0.077690  -0.016101   0.012510
   27  O  2 ZZ    0.000371  -0.004066   0.080210   0.011816  -0.004530
   28  O  2 XY   -0.000844   0.000370  -0.016776  -0.014836   0.023402
   29  O  2 XZ    0.002027   0.000908   0.001494  -0.026285  -0.020005
   30  O  2 YZ   -0.004370  -0.000322   0.000263   0.001567   0.009156
   31  H  3  S   -0.009298   0.000645   0.041351  -0.125572  -0.475336
   32  H  3  S    1.794848  -0.122532   0.040315  -0.090102  -0.341361
   33  H  3  X    0.005316  -0.001471   0.005207  -0.002847  -0.025654
   34  H  3  Y   -0.002529   0.007037   0.002086  -0.016976   0.027883
   35  H  3  Z    0.004905   0.005555  -0.001451  -0.027476  -0.024977
   36  H  4  S    0.005218   0.007755   0.041319   0.474449   0.128936
   37  H  4  S   -1.003689  -1.493352   0.041086   0.340699   0.092696
   38  H  4  X   -0.001485  -0.004938   0.005354   0.022861   0.000806
   39  H  4  Y   -0.006319   0.005694   0.001552  -0.017468   0.025231
   40  H  4  Z    0.005749   0.003050   0.001602  -0.035005  -0.020440
   41  H  5  S    0.004128  -0.008393   0.041317  -0.348922   0.346416
   42  H  5  S   -0.791526   1.615852   0.041125  -0.250506   0.248959
   43  H  5  X   -0.001236   0.003468   0.005733  -0.010637   0.008559
   44  H  5  Y   -0.004340   0.005281  -0.000788  -0.027112   0.034545
   45  H  5  Z    0.007594   0.004833  -0.000405  -0.026636  -0.016851

                     16         17         18         19
                    1.1656     1.3157     1.3157     1.3725
                     A          A          A          A   
    1  C  1  S    0.055687   0.000029   0.000003  -0.063150
    2  C  1  S   -0.453389  -0.000502  -0.000143   0.538150
    3  C  1  X   -0.995056   0.062704   0.117922  -0.169445
    4  C  1  Y   -0.173841  -0.295648  -0.701605  -0.029801
    5  C  1  Z    0.015356   0.711322  -0.302032   0.002897
    6  C  1  S   -0.038433   0.000821   0.000247  -0.875474
    7  C  1  X    0.973335  -0.098020  -0.184420  -0.115649
    8  C  1  Y    0.169987   0.462280   1.097058  -0.019954
    9  C  1  Z   -0.014987  -1.112237   0.472278   0.001449
   10  C  1 XX    0.119665   0.024429   0.039346   0.129605
   11  C  1 YY   -0.073328  -0.000548  -0.185823  -0.074612
   12  C  1 ZZ   -0.079374  -0.023914   0.146460  -0.080967
   13  C  1 XY    0.040206  -0.066927  -0.117001   0.042460
   14  C  1 XZ   -0.003592   0.179708  -0.058252  -0.003675
   15  C  1 YZ   -0.000618  -0.137254  -0.031052  -0.000709
   16  O  2  S   -0.040513  -0.000005  -0.000003  -0.013368
   17  O  2  S    0.256512   0.000253   0.000051  -0.695999
   18  O  2  X   -0.322114  -0.007104  -0.013366  -0.235035
   19  O  2  Y   -0.056327   0.033511   0.079470  -0.041056
   20  O  2  Z    0.005024  -0.080587   0.034195   0.003576
   21  O  2  S   -0.490365  -0.000527  -0.000113   1.393397
   22  O  2  X   -0.293551   0.008337   0.015848   0.237028
   23  O  2  Y   -0.051310  -0.039839  -0.094488   0.041405
   24  O  2  Z    0.004556   0.095795  -0.040667  -0.003629
   25  O  2 XX   -0.118085  -0.013318  -0.024914  -0.277840
   26  O  2 YY    0.095164   0.010450   0.030802  -0.247754
   27  O  2 ZZ    0.101840   0.003113  -0.005843  -0.246821
   28  O  2 XY   -0.044426   0.035115   0.082566  -0.006237
   29  O  2 XZ    0.003967  -0.088066   0.037047   0.000513
   30  O  2 YZ    0.000692  -0.010281   0.005880   0.000093
   31  H  3  S    0.025954   0.751358   0.233483  -0.562835
   32  H  3  S    0.165773  -1.463523  -0.454840   0.450157
   33  H  3  X   -0.012082  -0.074856  -0.017513   0.001126
   34  H  3  Y   -0.022062   0.044539  -0.021803  -0.056572
   35  H  3  Z    0.023439  -0.045248  -0.044643   0.066149
   36  H  4  S    0.026086  -0.577466   0.533753  -0.563375
   37  H  4  S    0.165515   1.125175  -1.039949   0.451080
   38  H  4  X   -0.014495   0.057084  -0.042464  -0.005626
   39  H  4  Y   -0.012950  -0.038289  -0.021615  -0.030664
   40  H  4  Z   -0.028366  -0.042485   0.060056  -0.081329
   41  H  5  S    0.026094  -0.173143  -0.767135  -0.563284
   42  H  5  S    0.165473   0.337419   1.494569   0.450975
   43  H  5  X   -0.020900   0.014103   0.053065  -0.023879
   44  H  5  Y    0.026711   0.011050   0.084505   0.082295
   45  H  5  Z    0.005663   0.046097   0.002280   0.015591

     ----------------------------------------------------------------
     PROPERTY VALUES FOR THE UHF   SELF-CONSISTENT FIELD WAVEFUNCTION
     ----------------------------------------------------------------

          -----------------
          ENERGY COMPONENTS
          -----------------

         WAVEFUNCTION NORMALIZATION =       1.0000000000

                ONE ELECTRON ENERGY =    -230.7715758158
                TWO ELECTRON ENERGY =      81.6022373064
           NUCLEAR REPULSION ENERGY =      34.7797998746
                                      ------------------
                       TOTAL ENERGY =    -114.3895386348

 ELECTRON-ELECTRON POTENTIAL ENERGY =      81.6022373064
  NUCLEUS-ELECTRON POTENTIAL ENERGY =    -345.1002447962
   NUCLEUS-NUCLEUS POTENTIAL ENERGY =      34.7797998746
                                      ------------------
             TOTAL POTENTIAL ENERGY =    -228.7182076151
               TOTAL KINETIC ENERGY =     114.3286689803
                 VIRIAL RATIO (V/T) =       2.0005324094

          ---------------------------------------
          MULLIKEN AND LOWDIN POPULATION ANALYSES
          ---------------------------------------

     ATOMIC MULLIKEN POPULATION IN EACH MOLECULAR ORBITAL
        ALPHA ORBITALS

                      1          2          3          4          5

                  1.000000   1.000000   1.000000   1.000000   1.000000

    1            -0.000013   0.999375   0.230834   0.493131   0.431187
    2             1.000018  -0.000004   0.744443   0.153286   0.178024
    3            -0.000002   0.000210   0.008241   0.117824   0.155590
    4            -0.000002   0.000210   0.008241   0.117881   0.007638
    5            -0.000002   0.000210   0.008241   0.117879   0.227561

                      6          7          8          9

                  1.000000   1.000000   1.000000   1.000000

    1             0.431191   0.243915   0.028534   0.028536
    2             0.178037   0.693471   0.753373   0.753362
    3             0.104941   0.020890   0.031735   0.113683
    4             0.252875   0.020861   0.041402   0.103991
    5             0.032957   0.020863   0.144956   0.000429

     ATOMIC MULLIKEN POPULATION IN EACH MOLECULAR ORBITAL
         BETA ORBITALS

                      1          2          3          4          5

                  1.000000   1.000000   1.000000   1.000000   1.000000

    1            -0.000013   0.999375   0.230834   0.493131   0.431187
    2             1.000018  -0.000004   0.744443   0.153286   0.178024
    3            -0.000002   0.000210   0.008241   0.117824   0.155590
    4            -0.000002   0.000210   0.008241   0.117881   0.007638
    5            -0.000002   0.000210   0.008241   0.117879   0.227561

                      6          7          8          9

                  1.000000   1.000000   1.000000   1.000000

    1             0.431191   0.243915   0.028534   0.028536
    2             0.178037   0.693471   0.753373   0.753362
    3             0.104941   0.020890   0.031735   0.113683
    4             0.252875   0.020861   0.041402   0.103991
    5             0.032957   0.020863   0.144956   0.000429

     ATOMIC SPIN POPULATION (ALPHA MINUS BETA)
       ATOM         MULL.POP.                    LOW.POP.
    1 C             0.000000                     0.000000
    2 O             0.000000                     0.000000
    3 H             0.000000                     0.000000
    4 H             0.000000                     0.000000
    5 H             0.000000                     0.000000


          ********* ALL ELECTRONS ********

               ----- POPULATIONS IN EACH AO -----
                             MULLIKEN      LOWDIN
              1  C  1  S      1.99672     1.97866
              2  C  1  S      0.65393     0.33864
              3  C  1  X      0.66523     0.58272
              4  C  1  Y      0.61024     0.52573
              5  C  1  Z      0.60851     0.52422
              6  C  1  S      0.45424     0.31889
              7  C  1  X      0.15423     0.31014
              8  C  1  Y      0.26966     0.46620
              9  C  1  Z      0.27329     0.47130
             10  C  1 XX      0.02554     0.18074
             11  C  1 YY      0.00137     0.14151
             12  C  1 ZZ     -0.00324     0.13252
             13  C  1 XY      0.02637     0.05607
             14  C  1 XZ      0.03317     0.07234
             15  C  1 YZ      0.00411     0.00802
             16  O  2  S      1.99554     1.97766
             17  O  2  S      0.86516     0.69568
             18  O  2  X      0.78272     0.73383
             19  O  2  Y      1.03138     1.01174
             20  O  2  Z      1.03916     1.01984
             21  O  2  S      1.03619     0.51603
             22  O  2  X      0.51321     0.60562
             23  O  2  Y      0.80988     0.82396
             24  O  2  Z      0.81917     0.82994
             25  O  2 XX      0.01322     0.19590
             26  O  2 YY     -0.00330     0.18023
             27  O  2 ZZ     -0.00352     0.17986
             28  O  2 XY      0.00488     0.00891
             29  O  2 XZ      0.00416     0.00820
             30  O  2 YZ      0.00019     0.00021
             31  H  3  S      0.54721     0.52904
             32  H  3  S      0.54794     0.47904
             33  H  3  X      0.00299     0.00736
             34  H  3  Y      0.00337     0.00753
             35  H  3  Z      0.00472     0.01002
             36  H  4  S      0.54724     0.53035
             37  H  4  S      0.54787     0.47929
             38  H  4  X      0.00253     0.00659
             39  H  4  Y      0.00225     0.00544
             40  H  4  Z      0.00630     0.01309
             41  H  5  S      0.54724     0.53201
             42  H  5  S      0.54787     0.47969
             43  H  5  X      0.00158     0.00500
             44  H  5  Y      0.00736     0.01506
             45  H  5  Z      0.00214     0.00522

          ----- MULLIKEN ATOMIC OVERLAP POPULATIONS -----
          (OFF-DIAGONAL ELEMENTS NEED TO BE MULTIPLIED BY 2)

             1           2           3           4           5

    1    4.3496516
    2    0.4153927   8.6958405
    3    0.3361270  -0.0677528   1.0392370
    4    0.3361034  -0.0677333  -0.1006982   1.0392553
    5    0.3361054  -0.0677305  -0.1006878  -0.1007359   1.0392355

          TOTAL MULLIKEN AND LOWDIN ATOMIC POPULATIONS
       ATOM         MULL.POP.    CHARGE          LOW.POP.     CHARGE
    1 C             5.773380    0.226620         6.107695   -0.107695
    2 O             8.908017   -0.908017         8.787587   -0.787587
    3 H             1.106225   -0.106225         1.032982   -0.032982
    4 H             1.106191   -0.106191         1.034764   -0.034764
    5 H             1.106187   -0.106187         1.036972   -0.036972

          -------------------------------
          BOND ORDER AND VALENCE ANALYSIS     BOND ORDER THRESHOLD=0.050
          -------------------------------

                   BOND                       BOND                       BOND
  ATOM PAIR DIST  ORDER      ATOM PAIR DIST  ORDER      ATOM PAIR DIST  ORDER
    1   2  1.311  1.262        1   3  1.134  0.910        1   4  1.134  0.910
    1   5  1.134  0.910

                       TOTAL       BONDED        FREE
      ATOM            VALENCE     VALENCE     VALENCE
    1 C                 3.992       3.992      -0.000
    2 O                 1.345       1.345      -0.000
    3 H                 0.911       0.911       0.000
    4 H                 0.911       0.911      -0.000
    5 H                 0.911       0.911       0.000

          -----------------------------------------
          ATOMIC SPIN DENSITY AT THE NUCLEUS (A.U.)
          -----------------------------------------
                            SPIN DENS    ALPHA DENS     BETA DENS
    1  C            6.0     0.0000000      58.99821      58.99821
    2  O            8.0     0.0000000     145.32361     145.32361
    3  H            1.0     0.0000000       0.21849       0.21849
    4  H            1.0     0.0000000       0.21851       0.21851
    5  H            1.0     0.0000000       0.21851       0.21851

          ---------------------
          ELECTROSTATIC MOMENTS
          ---------------------

 POINT   1           X           Y           Z (BOHR)    CHARGE
                 1.245493    0.217726   -0.321725       -1.00 (A.U.)
         DX          DY          DZ         /D/  (DEBYE)
    -1.630755   -0.285327    0.025556    1.655725
 ...... END OF PROPERTY EVALUATION ......
 STEP CPU TIME =     0.01 TOTAL CPU TIME =        4.6 (    0.1 MIN)
 TOTAL WALL CLOCK TIME=        4.6 SECONDS, CPU UTILIZATION IS  99.78%
  $VIB   
          IVIB=   0 IATOM=   0 ICOORD=   0 E=     -114.3895386348
  4.004362705E-05-3.051872591E-05 2.908935337E-05-9.803073629E-06 1.104944963E-05
 -1.041338859E-05-8.631603338E-06 1.962511812E-05-1.517212588E-05-8.471664937E-06
 -1.326830300E-05-1.756810909E-05-1.313728900E-05 1.311246035E-05 1.406426986E-05
 -1.630754542E+00-2.853272487E-01 2.555590182E-02
 ......END OF GEOMETRY SEARCH......
 STEP CPU TIME =     0.00 TOTAL CPU TIME =        4.6 (    0.1 MIN)
 TOTAL WALL CLOCK TIME=        4.6 SECONDS, CPU UTILIZATION IS  99.78%
               995810  WORDS OF DYNAMIC MEMORY USED
 EXECUTION OF GAMESS TERMINATED NORMALLY Thu Mar 10 23:52:21 2016
 DDI: 263640 bytes (0.3 MB / 0 MWords) used by master data server.

 ----------------------------------------
 CPU timing information for all processes
 ========================================
 0: 4.326 + 0.291 = 4.618
 ----------------------------------------
 ddikick.x: exited gracefully.
----- accounting info -----
Files used on the master node andre-mint were:
-rw-r--r-- 1 andrepd andrepd  371313 Mar 10 23:52 ./7_CH3O-_a.dat
-rw-r--r-- 1 andrepd andrepd     359 Mar 10 23:52 ./7_CH3O-_a.F05
-rw-r--r-- 1 andrepd andrepd 6300560 Mar 10 23:52 ./7_CH3O-_a.F08
-rw-r--r-- 1 andrepd andrepd 2061360 Mar 10 23:52 ./7_CH3O-_a.F10
-rw-r--r-- 1 andrepd andrepd     359 Mar 10 23:49 ./7_CH3O-_a.inp
-rw-r--r-- 1 andrepd andrepd  213851 Mar 10 23:52 ./7_CH3O-_a.out
Qui Mar 10 23:52:24 WET 2016
0.0u 0.0s 0:07.69 0.7% 0+0k 0+8io 0pf+0w
