----- GAMESS execution script 'rungms' -----
This job is running on host andre-mint
under operating system Linux at Qua Mar 9 21:59:47 WET 2016
Available scratch disk space (Kbyte units) at beginning of the job is
Filesystem     1K-blocks     Used Available Use% Mounted on
/dev/sda5       72784020 70999700    286356 100% /home
GAMESS temporary binary files will be written to .
GAMESS supplementary output files will be written to .
Copying input file 7a.inp to your run's scratch directory...

 Distributed Data Interface kickoff program.
 Initiating 1 compute processes on 1 nodes to run the following command:
 /home/andrepd/Development/gamess/gamess//gamess.69.x 7a 

          ******************************************************
          *         GAMESS VERSION =  5 DEC 2014 (R1)          *
          *             FROM IOWA STATE UNIVERSITY             *
          * M.W.SCHMIDT, K.K.BALDRIDGE, J.A.BOATZ, S.T.ELBERT, *
          *   M.S.GORDON, J.H.JENSEN, S.KOSEKI, N.MATSUNAGA,   *
          *          K.A.NGUYEN, S.J.SU, T.L.WINDUS,           *
          *       TOGETHER WITH M.DUPUIS, J.A.MONTGOMERY       *
          *         J.COMPUT.CHEM.  14, 1347-1363(1993)        *
          **************** 64 BIT LINUX VERSION ****************

  SINCE 1993, STUDENTS AND POSTDOCS WORKING AT IOWA STATE UNIVERSITY
  AND ALSO IN THEIR VARIOUS JOBS AFTER LEAVING ISU HAVE MADE IMPORTANT
  CONTRIBUTIONS TO THE CODE:
     IVANA ADAMOVIC, CHRISTINE AIKENS, YURI ALEXEEV, POOJA ARORA,
     ANDREY ASADCHEV, ROB BELL, PRADIPTA BANDYOPADHYAY, JONATHAN BENTZ,
     BRETT BODE, KURT BRORSEN, CALEB CARLIN, GALINA CHABAN, WEI CHEN,
     CHEOL HO CHOI, PAUL DAY, ALBERT DEFUSCO, NUWAN DESILVA, TIM DUDLEY,
     DMITRI FEDOROV, GRAHAM FLETCHER, MARK FREITAG, KURT GLAESEMANN,
     DAN KEMP, GRANT MERRILL, NORIYUKI MINEZAWA, JONATHAN MULLIN,
     TAKESHI NAGATA, SEAN NEDD, HEATHER NETZLOFF, BOSILJKA NJEGIC, RYAN OLSON,
     MIKE PAK, SPENCER PRUITT, LUKE ROSKOP, JIM SHOEMAKER, LYUDMILA SLIPCHENKO,
     TONY SMITH, SAROM SOK, JIE SONG, TETSUYA TAKETSUGU, SIMON WEBB,
     PENG XU, SOOHAENG YOO, FEDERICO ZAHARIEV

  ADDITIONAL CODE HAS BEEN PROVIDED BY COLLABORATORS IN OTHER GROUPS:
     IOWA STATE UNIVERSITY:
          JOE IVANIC, AARON WEST, LAIMUTIS BYTAUTAS, KLAUS RUEDENBERG
     UNIVERSITY OF TOKYO: KIMIHIKO HIRAO, TAKAHITO NAKAJIMA,
          TAKAO TSUNEDA, MUNEAKI KAMIYA, SUSUMU YANAGISAWA,
          KIYOSHI YAGI, MAHITO CHIBA, SEIKEN TOKURA, NAOAKI KAWAKAMI
     UNIVERSITY OF AARHUS: FRANK JENSEN
     UNIVERSITY OF IOWA: VISVALDAS KAIRYS, HUI LI
     NATIONAL INST. OF STANDARDS AND TECHNOLOGY: WALT STEVENS, DAVID GARMER
     UNIVERSITY OF PISA: BENEDETTA MENNUCCI, JACOPO TOMASI
     UNIVERSITY OF MEMPHIS: HENRY KURTZ, PRAKASHAN KORAMBATH
     UNIVERSITY OF ALBERTA: TOBY ZENG, MARIUSZ KLOBUKOWSKI
     UNIVERSITY OF NEW ENGLAND: MARK SPACKMAN
     MIE UNIVERSITY: HIROAKI UMEDA
     NAT. INST. OF ADVANCED INDUSTRIAL SCIENCE AND TECHNOLOGY: KAZUO KITAURA
     MICHIGAN STATE UNIVERSITY:
          KAROL KOWALSKI, MARTA WLOCH, JEFFREY GOUR, JESSE LUTZ,
          WEI LI, PIOTR PIECUCH
     UNIVERSITY OF SILESIA: MONIKA MUSIAL, STANISLAW KUCHARSKI
     FACULTES UNIVERSITAIRES NOTRE-DAME DE LA PAIX:
          OLIVIER QUINET, BENOIT CHAMPAGNE
     UNIVERSITY OF CALIFORNIA - SANTA BARBARA: BERNARD KIRTMAN
     INSTITUTE FOR MOLECULAR SCIENCE:
          KAZUYA ISHIMURA, MICHIO KATOUDA, AND SHIGERU NAGASE
     UNIVERSITY OF NOTRE DAME: ANNA POMOGAEVA, DAN CHIPMAN
     KYUSHU UNIVERSITY:
          HARUYUKI NAKANO,
          FENG LONG GU, JACEK KORCHOWIEC, MARCIN MAKOWSKI, AND YURIKO AOKI,
          HIROTOSHI MORI AND EISAKU MIYOSHI
     PENNSYLVANIA STATE UNIVERSITY:
          TZVETELIN IORDANOV, CHET SWALINA, JONATHAN SKONE,
          SHARON HAMMES-SCHIFFER
     WASEDA UNIVERSITY:
          MASATO KOBAYASHI, TOMOKO AKAMA, TSUGUKI TOUMA,
          TAKESHI YOSHIKAWA, YASUHIRO IKABATA, HIROMI NAKAI
     NANJING UNIVERSITY: SHUHUA LI
     UNIVERSITY OF NEBRASKA:
          PEIFENG SU, DEJUN SI, NANDUN THELLAMUREGE, YALI WANG, HUI LI
     UNIVERSITY OF ZURICH: ROBERTO PEVERATI, KIM BALDRIDGE
     N. COPERNICUS UNIVERSITY AND JACKSON STATE UNIVERSITY:
          MARIA BARYSZ
     UNIVERSITY OF COPENHAGEN: CASPER STEINMANN
     TOKYO INSTITUTE OF TECHNOLOGY: HIROYA NAKATA
     NAGOYA UNIVERSITY: YOSHIO NISHIMOTO, STEPHAN IRLE

 EXECUTION OF GAMESS BEGUN Wed Mar  9 21:59:47 2016

            ECHO OF THE FIRST FEW INPUT CARDS -
 INPUT CARD>!   File created by MacMolPlt 7.6.2                                             
 INPUT CARD> $CONTRL SCFTYP=UHF RUNTYP=OPTIMIZE MAXIT=200 MULT=1 $END                       
 INPUT CARD> $BASIS GBASIS=N31 NGAUSS=6 NDFUNC=2 NPFUNC=1 $END                              
 INPUT CARD>! $SCF DIRSCF=.TRUE. $END                                                       
 INPUT CARD> $DATA                                                                          
 INPUT CARD>CH3OH                                                                           
 INPUT CARD>C1                                                                              
 INPUT CARD>C  6.0  0.00  0.00  0.00                                                        
 INPUT CARD>O  8.0  1.00  0.00  0.20                                                        
 INPUT CARD>H  1.0  2.00  0.00  1.00                                                        
 INPUT CARD>H  1.0  -1.00  0.00  -1.00                                                      
 INPUT CARD>H  1.0  0.00  1.00  1.00                                                        
 INPUT CARD>H  1.0  0.00  -1.00  -1.00                                                      
 INPUT CARD> $END                                                                           
    1000000 WORDS OF MEMORY AVAILABLE

     BASIS OPTIONS
     -------------
     GBASIS=N31          IGAUSS=       6      POLAR=POPN31  
     NDFUNC=       2     NFFUNC=       0     DIFFSP=       F
     NPFUNC=       1      DIFFS=       F     BASNAM=        
     SPLIT2=     2.00000000     0.50000000


     RUN TITLE
     ---------
 CH3OH                                                                           

 THE POINT GROUP OF THE MOLECULE IS C1      
 THE ORDER OF THE PRINCIPAL AXIS IS     0

 ATOM      ATOMIC                      COORDINATES (BOHR)
           CHARGE         X                   Y                   Z
 C           6.0     0.0000000000        0.0000000000        0.0000000000
 O           8.0     1.8897259877        0.0000000000        0.3779451975
 H           1.0     3.7794519754        0.0000000000        1.8897259877
 H           1.0    -1.8897259877        0.0000000000       -1.8897259877
 H           1.0     0.0000000000        1.8897259877        1.8897259877
 H           1.0     0.0000000000       -1.8897259877       -1.8897259877

          INTERNUCLEAR DISTANCES (ANGS.)
          ------------------------------

                1 C          2 O          3 H          4 H          5 H     

   1 C       0.0000000    1.0198039 *  2.2360680 *  1.4142136 *  1.4142136 *
   2 O       1.0198039 *  0.0000000    1.2806248 *  2.3323808 *  1.6248077 *
   3 H       2.2360680 *  1.2806248 *  0.0000000    3.6055513    2.2360680 *
   4 H       1.4142136 *  2.3323808 *  3.6055513    0.0000000    2.4494897 *
   5 H       1.4142136 *  1.6248077 *  2.2360680 *  2.4494897 *  0.0000000  
   6 H       1.4142136 *  1.8547237 *  3.0000000 *  1.4142136 *  2.8284271 *

                6 H     

   1 C       1.4142136 *
   2 O       1.8547237 *
   3 H       3.0000000 *
   4 H       1.4142136 *
   5 H       2.8284271 *
   6 H       0.0000000  

  * ... LESS THAN  3.000


     ATOMIC BASIS SET
     ----------------
 THE CONTRACTED PRIMITIVE FUNCTIONS HAVE BEEN UNNORMALIZED
 THE CONTRACTED BASIS FUNCTIONS ARE NOW NORMALIZED TO UNITY

  SHELL TYPE  PRIMITIVE        EXPONENT          CONTRACTION COEFFICIENT(S)

 C         

      1   S       1          3047.5248800    0.001834737132
      1   S       2           457.3695180    0.014037322813
      1   S       3           103.9486850    0.068842622264
      1   S       4            29.2101553    0.232184443216
      1   S       5             9.2866630    0.467941348435
      1   S       6             3.1639270    0.362311985337

      2   L       7             7.8682723   -0.119332419775    0.068999066591
      2   L       8             1.8812885   -0.160854151696    0.316423960957
      2   L       9             0.5442493    1.143456437840    0.744308290898

      3   L      10             0.1687145    1.000000000000    1.000000000000

      4   D      11             1.6000000    1.000000000000

      5   D      12             0.4000000    1.000000000000

 O         

      6   S      13          5484.6716600    0.001831074430
      6   S      14           825.2349460    0.013950172200
      6   S      15           188.0469580    0.068445078098
      6   S      16            52.9645000    0.232714335992
      6   S      17            16.8975704    0.470192897984
      6   S      18             5.7996353    0.358520852987

      7   L      19            15.5396162   -0.110777549525    0.070874268231
      7   L      20             3.5999336   -0.148026262701    0.339752839147
      7   L      21             1.0137618    1.130767015354    0.727158577316

      8   L      22             0.2700058    1.000000000000    1.000000000000

      9   D      23             1.6000000    1.000000000000

     10   D      24             0.4000000    1.000000000000

 H         

     11   S      25            18.7311370    0.033494604338
     11   S      26             2.8253944    0.234726953484
     11   S      27             0.6401217    0.813757326146

     12   S      28             0.1612778    1.000000000000

     13   P      29             1.1000000    1.000000000000

 H         

     14   S      30            18.7311370    0.033494604338
     14   S      31             2.8253944    0.234726953484
     14   S      32             0.6401217    0.813757326146

     15   S      33             0.1612778    1.000000000000

     16   P      34             1.1000000    1.000000000000

 H         

     17   S      35            18.7311370    0.033494604338
     17   S      36             2.8253944    0.234726953484
     17   S      37             0.6401217    0.813757326146

     18   S      38             0.1612778    1.000000000000

     19   P      39             1.1000000    1.000000000000

 H         

     20   S      40            18.7311370    0.033494604338
     20   S      41             2.8253944    0.234726953484
     20   S      42             0.6401217    0.813757326146

     21   S      43             0.1612778    1.000000000000

     22   P      44             1.1000000    1.000000000000

 TOTAL NUMBER OF BASIS SET SHELLS             =   22
 NUMBER OF CARTESIAN GAUSSIAN BASIS FUNCTIONS =   62
 NUMBER OF ELECTRONS                          =   18
 CHARGE OF MOLECULE                           =    0
 SPIN MULTIPLICITY                            =    1
 NUMBER OF OCCUPIED ORBITALS (ALPHA)          =    9
 NUMBER OF OCCUPIED ORBITALS (BETA )          =    9
 TOTAL NUMBER OF ATOMS                        =    6
 THE NUCLEAR REPULSION ENERGY IS       44.4084353222

     $CONTRL OPTIONS
     ---------------
 SCFTYP=UHF          RUNTYP=OPTIMIZE     EXETYP=RUN     
 MPLEVL=       0     CITYP =NONE         CCTYP =NONE         VBTYP =NONE    
 DFTTYP=NONE         TDDFT =NONE    
 MULT  =       1     ICHARG=       0     NZVAR =       0     COORD =UNIQUE  
 PP    =NONE         RELWFN=NONE         LOCAL =NONE         NUMGRD=       F
 ISPHER=      -1     NOSYM =       0     MAXIT =     200     UNITS =ANGS    
 PLTORB=       F     MOLPLT=       F     AIMPAC=       F     FRIEND=        
 NPRINT=       7     IREST =       0     GEOM  =INPUT   
 NORMF =       0     NORMP =       0     ITOL  =      20     ICUT  =       9
 INTTYP=BEST         GRDTYP=BEST         QMTTOL= 1.0E-06

     $SYSTEM OPTIONS
     ---------------
  REPLICATED MEMORY=     1000000 WORDS (ON EVERY NODE).
 DISTRIBUTED MEMDDI=           0 MILLION WORDS IN AGGREGATE,
 MEMDDI DISTRIBUTED OVER   1 PROCESSORS IS           0 WORDS/PROCESSOR.
 TOTAL MEMORY REQUESTED ON EACH PROCESSOR=     1000000 WORDS.
 TIMLIM=      525600.00 MINUTES, OR     365.0 DAYS.
 PARALL= F  BALTYP=  DLB     KDIAG=    0  COREFL= F
 MXSEQ2=     300 MXSEQ3=     150  mem10=         0

          ----------------
          PROPERTIES INPUT
          ----------------

     MOMENTS            FIELD           POTENTIAL          DENSITY
 IEMOM =       1   IEFLD =       0   IEPOT =       0   IEDEN =       0
 WHERE =COMASS     WHERE =NUCLEI     WHERE =NUCLEI     WHERE =NUCLEI  
 OUTPUT=BOTH       OUTPUT=BOTH       OUTPUT=BOTH       OUTPUT=BOTH    
 IEMINT=       0   IEFINT=       0                     IEDINT=       0
                                                       MORB  =       0
          EXTRAPOLATION IN EFFECT
          SOSCF IN EFFECT
          DIIS or SOSCF will be reset if energy rises
 ORBITAL PRINTING OPTION: NPREO=     1    62     2     1

     -------------------------------
     INTEGRAL TRANSFORMATION OPTIONS
     -------------------------------
     NWORD  =            0
     CUTOFF = 1.0E-09     MPTRAN =       0
     DIRTRF =       F     AOINTS =DUP     

          ----------------------
          INTEGRAL INPUT OPTIONS
          ----------------------
 NOPK  =       1 NORDER=       0 SCHWRZ=       T

     ------------------------------------------
     THE POINT GROUP IS C1 , NAXIS= 0, ORDER= 1
     ------------------------------------------

     DIMENSIONS OF THE SYMMETRY SUBSPACES ARE
 A   =   62

 ..... DONE SETTING UP THE RUN .....
 STEP CPU TIME =     0.01 TOTAL CPU TIME =        0.0 (    0.0 MIN)
 TOTAL WALL CLOCK TIME=        0.0 SECONDS, CPU UTILIZATION IS 100.00%


          -----------------------------
          STATIONARY POINT LOCATION RUN
          -----------------------------

 OBTAINING INITIAL HESSIAN, HESS=GUESS   
 CARTESIAN COORDINATE OPTIMIZATION USING BADGER'S RULE FORCE CONSTANT GUESS

          PARAMETERS CONTROLLING GEOMETRY SEARCH ARE
          METHOD =QA                  UPHESS =BFGS    
          NNEG   =         0          NFRZ   =         0
          NSTEP  =        50          IFOLOW =         1
          HESS   =GUESS               RESTAR =         F
          IHREP  =         0          HSSEND =         F
          NPRT   =         0          NPUN   =         0
          OPTTOL = 1.000E-04          RMIN   = 1.500E-03
          RMAX   = 1.000E-01          RLIM   = 7.000E-02
          DXMAX  = 3.000E-01          PURIFY =         F
          MOVIE  =         F          TRUPD  =         T
          TRMAX  = 5.000E-01          TRMIN  = 5.000E-02
          ITBMAT =         5          STPT   =         F
          STSTEP = 1.000E-02          PROJCT=          T

 BEGINNING GEOMETRY SEARCH POINT NSERCH=   0 ...

 COORDINATES OF ALL ATOMS ARE (ANGS)
   ATOM   CHARGE       X              Y              Z
 ------------------------------------------------------------
 C           6.0   0.0000000000   0.0000000000   0.0000000000
 O           8.0   1.0000000000   0.0000000000   0.2000000000
 H           1.0   2.0000000000   0.0000000000   1.0000000000
 H           1.0  -1.0000000000   0.0000000000  -1.0000000000
 H           1.0   0.0000000000   1.0000000000   1.0000000000
 H           1.0   0.0000000000  -1.0000000000  -1.0000000000

          ********************
          1 ELECTRON INTEGRALS
          ********************
 ...... END OF ONE-ELECTRON INTEGRALS ......
 STEP CPU TIME =     0.00 TOTAL CPU TIME =        0.0 (    0.0 MIN)
 TOTAL WALL CLOCK TIME=        0.0 SECONDS, CPU UTILIZATION IS 100.00%

          -------------
          GUESS OPTIONS
          -------------
          GUESS =HUCKEL            NORB  =       0          NORDER=       0
          MIX   =       F          PRTMO =       F          PUNMO =       F
          TOLZ  = 1.0E-08          TOLE  = 1.0E-05
          SYMDEN=       F          PURIFY=       F

 INITIAL GUESS ORBITALS GENERATED BY HUCKEL   ROUTINE.
 HUCKEL GUESS REQUIRES     33096 WORDS.

 SYMMETRIES FOR INITIAL GUESS ORBITALS FOLLOW.  ALPHA SET(S).
     9 ORBITALS ARE OCCUPIED (    2 CORE ORBITALS).
     3=A        4=A        5=A        6=A        7=A        8=A        9=A   
    10=A       11=A       12=A       13=A       14=A       15=A       16=A   
    17=A       18=A       19=A   

 SYMMETRIES FOR INITIAL GUESS ORBITALS FOLLOW.   BETA SET(S).
     9 ORBITALS ARE OCCUPIED (    2 CORE ORBITALS).
     3=A        4=A        5=A        6=A        7=A        8=A        9=A   
    10=A       11=A       12=A       13=A       14=A       15=A       16=A   
    17=A       18=A       19=A   
 ...... END OF INITIAL ORBITAL SELECTION ......
 STEP CPU TIME =     0.00 TOTAL CPU TIME =        0.0 (    0.0 MIN)
 TOTAL WALL CLOCK TIME=        0.0 SECONDS, CPU UTILIZATION IS  50.00%

                    ----------------------
                    AO INTEGRAL TECHNOLOGY
                    ----------------------
     S,P,L SHELL ROTATED AXIS INTEGRALS, REPROGRAMMED BY
        KAZUYA ISHIMURA (IMS) AND JOSE SIERRA (SYNSTAR).
     S,P,D,L SHELL ROTATED AXIS INTEGRALS PROGRAMMED BY
        KAZUYA ISHIMURA (INSTITUTE FOR MOLECULAR SCIENCE).
     S,P,D,F,G SHELL TO TOTAL QUARTET ANGULAR MOMENTUM SUM 5,
        ERIC PROGRAM BY GRAHAM FLETCHER (ELORET AND NASA ADVANCED
        SUPERCOMPUTING DIVISION, AMES RESEARCH CENTER).
     S,P,D,F,G,L SHELL GENERAL RYS QUADRATURE PROGRAMMED BY
        MICHEL DUPUIS (PACIFIC NORTHWEST NATIONAL LABORATORY).

          --------------------
          2 ELECTRON INTEGRALS
          --------------------

 THE -PK- OPTION IS OFF, THE INTEGRALS ARE NOT IN SUPERMATRIX FORM.
 STORING   15000 INTEGRALS/RECORD ON DISK, USING 12 BYTES/INTEGRAL.
 TWO ELECTRON INTEGRAL EVALUATION REQUIRES   90649 WORDS OF MEMORY.
 SCHWARZ INEQUALITY OVERHEAD:      1953 INTEGRALS, T=        0.01
 II,JST,KST,LST =  1  1  1  1 NREC =         1 INTLOC =    1
 II,JST,KST,LST =  2  1  1  1 NREC =         1 INTLOC =    2
 II,JST,KST,LST =  3  1  1  1 NREC =         1 INTLOC =   34
 II,JST,KST,LST =  4  1  1  1 NREC =         1 INTLOC =  214
 II,JST,KST,LST =  5  1  1  1 NREC =         1 INTLOC = 1189
 II,JST,KST,LST =  6  1  1  1 NREC =         1 INTLOC = 4201
 II,JST,KST,LST =  7  1  1  1 NREC =         1 INTLOC = 7154
 II,JST,KST,LST =  8  1  1  1 NREC =         2 INTLOC = 7834
 II,JST,KST,LST =  9  1  1  1 NREC =         4 INTLOC = 2188
 II,JST,KST,LST = 10  1  1  1 NREC =         7 INTLOC =13918
 II,JST,KST,LST = 11  1  1  1 NREC =        13 INTLOC =12865
 II,JST,KST,LST = 12  1  1  1 NREC =        15 INTLOC = 4591
 II,JST,KST,LST = 13  1  1  1 NREC =        16 INTLOC =13029
 II,JST,KST,LST = 14  1  1  1 NREC =        21 INTLOC =13379
 II,JST,KST,LST = 15  1  1  1 NREC =        23 INTLOC =12576
 II,JST,KST,LST = 16  1  1  1 NREC =        26 INTLOC =   79
 II,JST,KST,LST = 17  1  1  1 NREC =        32 INTLOC = 3647
 II,JST,KST,LST = 18  1  1  1 NREC =        36 INTLOC =14597
 II,JST,KST,LST = 19  1  1  1 NREC =        41 INTLOC =14621
 II,JST,KST,LST = 20  1  1  1 NREC =        58 INTLOC = 6496
 II,JST,KST,LST = 21  1  1  1 NREC =        64 INTLOC = 7255
 II,JST,KST,LST = 22  1  1  1 NREC =        70 INTLOC =13510
 SCHWARZ INEQUALITY TEST SKIPPED         639 INTEGRAL BLOCKS.
 TOTAL NUMBER OF NONZERO TWO-ELECTRON INTEGRALS =             1354110
         91 INTEGRAL RECORDS WERE STORED ON DISK FILE  8.
  ...... END OF TWO-ELECTRON INTEGRALS .....
 STEP CPU TIME =     0.11 TOTAL CPU TIME =        0.1 (    0.0 MIN)
 TOTAL WALL CLOCK TIME=        0.1 SECONDS, CPU UTILIZATION IS  92.31%

          ---------------------------
                  UHF SCF CALCULATION
          ---------------------------

     NUCLEAR ENERGY =        44.4084353222
     MAXIT =200     NPUNCH=  2     MULT=  1
     EXTRAP=T  DAMP=F  SHIFT=F  RSTRCT=F  DIIS=F  SOSCF=T
     DENSITY MATRIX CONV=  1.00E-05
     SOSCF WILL OPTIMIZE     477 ALPHA AND     477 BETA ROTATION ANGLES.
     SOGTOL= 2.500E-01
     MEMORY REQUIRED FOR UHF/ROHF ITERS=     76110 WORDS.

 ITER EX      TOTAL ENERGY        E CHANGE  DENSITY CHANGE    ORB. GRAD 
   1  0     -113.6603409484  -113.6603409484   0.501856892   0.000000000
          ---------------START SECOND ORDER SCF---------------
   2  1     -114.2816325202    -0.6212915718   0.393346440   0.080494959
   3  2     -114.3502897273    -0.0686572071   0.087002792   0.079741583
   4  3     -114.4159748565    -0.0656851292   0.032530911   0.010275789
   5  4     -114.4187505250    -0.0027756685   0.055595359   0.005802662
   6  5     -114.4204729223    -0.0017223974   0.068152063   0.004882964
   7  6     -114.4215897290    -0.0011168066   0.077986768   0.004284672
   8  7     -114.4224322262    -0.0008424972   0.028106852   0.003603332
   9  8     -114.4228004931    -0.0003682669   0.016977716   0.001724418
  10  9     -114.4229511917    -0.0001506985   0.013067379   0.001375442
  11 10     -114.4230202098    -0.0000690181   0.011173321   0.000845875
  12 11     -114.4230528035    -0.0000325938   0.003139155   0.000455247
  13 12     -114.4230608602    -0.0000080567   0.001767243   0.000235573
  14 13     -114.4230627488    -0.0000018886   0.000570935   0.000121022
  15 14     -114.4230632375    -0.0000004887   0.000476262   0.000051232
  16 15     -114.4230633673    -0.0000001298   0.000205663   0.000030833
  17 16     -114.4230633942    -0.0000000268   0.000077765   0.000012279
  18 17     -114.4230633994    -0.0000000052   0.000037060   0.000008097
  19 18     -114.4230634004    -0.0000000010   0.000011785   0.000003725
  20 19     -114.4230634005    -0.0000000002   0.000002366   0.000001224
  21 20     -114.4230634005    -0.0000000000   0.000001128   0.000000352

          -----------------
          DENSITY CONVERGED
          -----------------
     TIME TO FORM FOCK OPERATORS=       0.5 SECONDS (       0.0 SEC/ITER)
     TIME TO SOLVE SCF EQUATIONS=       0.1 SECONDS (       0.0 SEC/ITER)

 FINAL UHF ENERGY IS     -114.4230634005 AFTER  21 ITERATIONS

          --------------------
          SPIN SZ   =    0.000
          S-SQUARED =   -0.000
          --------------------

  ----- ALPHA SET ----- 

          ------------
          EIGENVECTORS
          ------------

                      1          2          3          4          5
                  -20.6503   -11.3938    -1.6215    -0.9191    -0.7890
                     A          A          A          A          A   
    1  C  1  S    0.000066   0.996003  -0.121309   0.106480   0.001974
    2  C  1  S    0.000124   0.011345   0.233043  -0.231274  -0.001074
    3  C  1  X   -0.000026   0.003562   0.243296  -0.151137   0.001914
    4  C  1  Y   -0.000043  -0.000534   0.000469   0.001436   0.205246
    5  C  1  Z   -0.000057   0.000646   0.052059   0.002535   0.239441
    6  C  1  S    0.002715   0.002515   0.075193  -0.163254  -0.012286
    7  C  1  X    0.000979   0.000929   0.002689  -0.010023  -0.011231
    8  C  1  Y   -0.000017  -0.000111  -0.002058   0.005968   0.059676
    9  C  1  Z    0.000158   0.000263  -0.007684   0.009355   0.064577
   10  C  1 XX   -0.000514   0.005622   0.028127  -0.018325  -0.003750
   11  C  1 YY    0.000100   0.004365  -0.001202  -0.002480  -0.001018
   12  C  1 ZZ    0.000077   0.004371   0.000084  -0.002582   0.004531
   13  C  1 XY   -0.000008   0.000059   0.000351  -0.000674   0.013517
   14  C  1 XZ   -0.000137   0.000212   0.007478  -0.001722   0.014325
   15  C  1 YZ   -0.000010  -0.000049   0.000085  -0.000834   0.002533
   16  C  1 XX   -0.000108   0.000023   0.035210  -0.015454  -0.011764
   17  C  1 YY   -0.000380  -0.000166  -0.004197   0.003841  -0.006935
   18  C  1 ZZ   -0.000422  -0.000065  -0.002470   0.000838   0.004272
   19  C  1 XY   -0.000048  -0.000405   0.000057   0.000283   0.023931
   20  C  1 XZ   -0.000047   0.000199   0.009293  -0.001236   0.022949
   21  C  1 YZ   -0.000056   0.000187  -0.000037  -0.007780   0.002128
   22  O  2  S    0.997693  -0.001148  -0.210006  -0.085453   0.020873
   23  O  2  S    0.041385   0.001341   0.431350   0.175005  -0.046840
   24  O  2  X   -0.001314  -0.001547  -0.179309   0.447118  -0.160022
   25  O  2  Y    0.000451   0.000144   0.007148  -0.021216   0.320491
   26  O  2  Z    0.000161  -0.000286  -0.021082   0.148604   0.353208
   27  O  2  S   -0.049418  -0.005543   0.323954   0.439001  -0.086505
   28  O  2  X    0.000903   0.004370   0.032912   0.179568  -0.080658
   29  O  2  Y   -0.000181   0.000392   0.006372  -0.007471   0.172738
   30  O  2  Z   -0.000053   0.000864   0.025338   0.075716   0.196426
   31  O  2 XX    0.000602   0.001181   0.013849  -0.016056   0.008614
   32  O  2 YY   -0.000192  -0.000222  -0.017081   0.001379   0.000644
   33  O  2 ZZ   -0.000184  -0.000196  -0.015644   0.004667  -0.004523
   34  O  2 XY   -0.000112  -0.000006  -0.001265   0.002297  -0.014414
   35  O  2 XZ    0.000070   0.000299   0.006770  -0.000537  -0.013717
   36  O  2 YZ    0.000077  -0.000035  -0.000631   0.001227  -0.000137
   37  O  2 XX    0.013193  -0.002046  -0.035245   0.009975  -0.003951
   38  O  2 YY    0.013632   0.000724  -0.016240  -0.024812   0.008436
   39  O  2 ZZ    0.013526   0.000614  -0.013246  -0.009485   0.014261
   40  O  2 XY   -0.000001  -0.000299  -0.001900   0.002730  -0.000013
   41  O  2 XZ   -0.000227  -0.000597  -0.002431   0.024669  -0.002078
   42  O  2 YZ   -0.000005  -0.000155  -0.001154   0.002163   0.012459
   43  H  3  S    0.000101   0.000145   0.028768   0.168975   0.032719
   44  H  3  S    0.000449  -0.000459  -0.010163   0.089544   0.024550
   45  H  3  X   -0.000153  -0.000039  -0.005672  -0.016336  -0.005183
   46  H  3  Y    0.000024   0.000039   0.000380   0.000263   0.004078
   47  H  3  Z   -0.000104  -0.000164  -0.004644  -0.014003   0.001642
   48  H  4  S    0.000041   0.000077   0.003310  -0.032609  -0.044199
   49  H  4  S    0.000044   0.000066  -0.009005  -0.012475  -0.023640
   50  H  4  X    0.000025  -0.000063   0.002701  -0.004516  -0.005378
   51  H  4  Y   -0.000014  -0.000001  -0.000066   0.000345   0.003496
   52  H  4  Z    0.000026  -0.000014   0.000579  -0.002994  -0.002005
   53  H  5  S   -0.000009   0.000144   0.020709  -0.021415   0.095630
   54  H  5  S    0.000089  -0.000118  -0.000102  -0.006267   0.065102
   55  H  5  X    0.000028   0.000032   0.000913  -0.000152   0.001796
   56  H  5  Y   -0.000033   0.000024  -0.002500   0.002638  -0.005250
   57  H  5  Z   -0.000034   0.000051  -0.002210   0.002199  -0.004350
   58  H  6  S    0.000005   0.000099   0.013410  -0.038181  -0.087729
   59  H  6  S   -0.000063  -0.000047  -0.000855  -0.014699  -0.062004
   60  H  6  X   -0.000048   0.000063   0.000631   0.000609   0.002490
   61  H  6  Y   -0.000010  -0.000083   0.001920  -0.003013  -0.004262
   62  H  6  Z   -0.000022  -0.000042   0.001991  -0.002644  -0.002796

                      6          7          8          9         10
                   -0.7193    -0.6847    -0.3498    -0.2095     0.0194
                     A          A          A          A          A   
    1  C  1  S   -0.008892   0.103863  -0.024257   0.017551  -0.038105
    2  C  1  S    0.004835  -0.165476   0.011312  -0.043233   0.047227
    3  C  1  X   -0.059679   0.355053  -0.151650   0.036725   0.104890
    4  C  1  Y    0.239957   0.026969   0.124987  -0.167915   0.062806
    5  C  1  Z   -0.209465   0.038044   0.173274   0.050909  -0.092307
    6  C  1  S    0.029190  -0.276317   0.165824  -0.094390  -0.025036
    7  C  1  X    0.005421   0.114978  -0.048637   0.069423  -0.076144
    8  C  1  Y    0.073971   0.010653   0.131556  -0.217924   0.061864
    9  C  1  Z   -0.059615   0.009121   0.198407   0.060538  -0.147984
   10  C  1 XX    0.003609   0.003156   0.000011  -0.013491   0.012437
   11  C  1 YY    0.002015  -0.015630   0.006363   0.007262   0.004858
   12  C  1 ZZ   -0.001789  -0.019054   0.002366   0.000899   0.002734
   13  C  1 XY    0.019409   0.002852  -0.010517   0.003967  -0.004170
   14  C  1 XZ   -0.014451  -0.003839  -0.012620  -0.010676  -0.006173
   15  C  1 YZ    0.004740  -0.002539  -0.000974   0.010720  -0.002128
   16  C  1 XX    0.019101   0.008437  -0.003321  -0.038937  -0.008873
   17  C  1 YY    0.003996  -0.025292   0.002115   0.036448  -0.002512
   18  C  1 ZZ   -0.000368  -0.051776   0.002167   0.008169  -0.000128
   19  C  1 XY    0.039121   0.004753  -0.020757  -0.001981  -0.008598
   20  C  1 XZ   -0.024247  -0.035142  -0.026761  -0.039726  -0.023949
   21  C  1 YZ    0.007659  -0.018518   0.001968   0.043876  -0.010063
   22  O  2  S   -0.008735  -0.033768  -0.003982   0.036828   0.058742
   23  O  2  S    0.017508   0.083489   0.010560  -0.099561  -0.179151
   24  O  2  X    0.161622  -0.131498   0.166479   0.041061  -0.188715
   25  O  2  Y    0.420334   0.049636  -0.269366   0.130483  -0.107456
   26  O  2  Z   -0.305947  -0.180003  -0.265140  -0.076259  -0.152220
   27  O  2  S    0.049301   0.038356   0.034538  -0.197734  -0.329551
   28  O  2  X    0.073159  -0.024324   0.113506   0.000799  -0.312982
   29  O  2  Y    0.244488   0.031998  -0.245442   0.176922  -0.122170
   30  O  2  Z   -0.185530  -0.082105  -0.263377  -0.090606  -0.198748
   31  O  2 XX   -0.011166   0.006641  -0.007086  -0.000483   0.016346
   32  O  2 YY    0.004293  -0.005357   0.003609   0.005147  -0.003861
   33  O  2 ZZ    0.005061  -0.005756   0.000531   0.004043   0.005002
   34  O  2 XY   -0.019588  -0.003351   0.002065   0.002674  -0.000681
   35  O  2 XZ    0.013892   0.006301  -0.004941   0.001029   0.017991
   36  O  2 YZ   -0.003440  -0.001952  -0.000391   0.005151  -0.001248
   37  O  2 XX    0.010567  -0.018747   0.015517  -0.005596  -0.044092
   38  O  2 YY    0.006433   0.005426   0.004294  -0.001664  -0.039650
   39  O  2 ZZ   -0.012580  -0.005377  -0.013601  -0.007783  -0.049854
   40  O  2 XY    0.003220  -0.003281  -0.012053  -0.000600   0.001445
   41  O  2 XZ    0.004834  -0.021680  -0.013621  -0.006899  -0.014100
   42  O  2 YZ    0.009375   0.000133  -0.009535   0.011270  -0.003256
   43  H  3  S   -0.008925  -0.065590  -0.099238   0.036524   0.267139
   44  H  3  S    0.003927  -0.065737  -0.152321   0.167348   1.020581
   45  H  3  X    0.003393   0.005086   0.004832   0.001300   0.005225
   46  H  3  Y    0.005262   0.000514  -0.005106   0.005337  -0.002761
   47  H  3  Z   -0.002090   0.001270  -0.002975   0.000405   0.004426
   48  H  4  S    0.059713  -0.168152  -0.070549  -0.194238  -0.003766
   49  H  4  S    0.054550  -0.131968  -0.081468  -0.467829  -0.041690
   50  H  4  X    0.005544  -0.007647  -0.005075  -0.002009   0.002403
   51  H  4  Y    0.002899   0.001613   0.005979  -0.007864   0.004437
   52  H  4  Z    0.003567  -0.008057   0.003221  -0.005444   0.001723
   53  H  5  S    0.024017  -0.081115   0.213176   0.144421   0.017559
   54  H  5  S    0.025921  -0.085786   0.332073   0.417687   0.084559
   55  H  5  X    0.000725   0.002417  -0.003762   0.003432  -0.000524
   56  H  5  Y    0.001164   0.004195  -0.009063  -0.001569  -0.001030
   57  H  5  Z   -0.003057   0.003115  -0.008177   0.001509  -0.002128
   58  H  6  S    0.006799  -0.105432  -0.150679   0.218783  -0.073104
   59  H  6  S   -0.000188  -0.080782  -0.206921   0.573404  -0.243610
   60  H  6  X   -0.000575   0.004566   0.003076   0.001469   0.002988
   61  H  6  Y    0.002544  -0.006075  -0.009224   0.002449  -0.001234
   62  H  6  Z   -0.001278  -0.004231  -0.005413   0.006040  -0.002035

                     11         12         13         14         15
                    0.1272     0.2313     0.2899     0.4484     0.6306
                     A          A          A          A          A   
    1  C  1  S   -0.113420   0.057502   0.013172  -0.011693  -0.008971
    2  C  1  S    0.066649  -0.061796  -0.017901  -0.085697  -0.350528
    3  C  1  X   -0.227919   0.086604  -0.005965   0.048961   0.201221
    4  C  1  Y   -0.131790  -0.274776   0.350856  -0.105765   0.461043
    5  C  1  Z    0.125829   0.248056   0.349976   0.071453  -0.483218
    6  C  1  S    0.892922  -0.824293  -0.010102   3.745089   1.236123
    7  C  1  X   -0.411600  -0.063479   0.162054   2.927453   0.145377
    8  C  1  Y   -0.218176  -0.572658   0.984463  -0.032092  -0.845371
    9  C  1  Z    0.192690   0.568087   1.134168   0.635369   1.015439
   10  C  1 XX    0.022822   0.000962  -0.003345  -0.041843   0.013763
   11  C  1 YY    0.022132  -0.017179  -0.003837   0.012402   0.007181
   12  C  1 ZZ    0.016442  -0.015022  -0.002529   0.015436   0.003141
   13  C  1 XY    0.008448   0.005083  -0.002264   0.000306   0.017691
   14  C  1 XZ   -0.008924  -0.000425  -0.002675  -0.005011  -0.018633
   15  C  1 YZ   -0.006144   0.001449  -0.000318  -0.009855   0.002956
   16  C  1 XX   -0.037290  -0.013345  -0.002487   0.096180  -0.215358
   17  C  1 YY    0.004275  -0.015328  -0.005453  -0.197024  -0.173152
   18  C  1 ZZ    0.004278  -0.007052  -0.005361  -0.186687  -0.096423
   19  C  1 XY    0.000352  -0.026222   0.056274   0.014241  -0.155071
   20  C  1 XZ    0.019227   0.022354   0.048301   0.015256   0.200761
   21  C  1 YZ   -0.002811  -0.026601   0.009122  -0.026781  -0.134277
   22  O  2  S    0.008036  -0.012383   0.003640   0.035462   0.000445
   23  O  2  S   -0.010613   0.031364  -0.027357  -0.287982  -0.033638
   24  O  2  X    0.048230  -0.033396  -0.013601   0.039801  -0.016023
   25  O  2  Y    0.180426   0.144273  -0.056299   0.030405   0.053548
   26  O  2  Z   -0.085104  -0.212532  -0.082906   0.023649  -0.027188
   27  O  2  S    0.059114   0.148502  -0.263136  -2.922950  -0.374251
   28  O  2  X    0.028211  -0.089092   0.079181   1.097138   0.306404
   29  O  2  Y    0.253468   0.329223  -0.316451   0.071200   0.227439
   30  O  2  Z   -0.180534  -0.447164  -0.365706   0.278766  -0.216705
   31  O  2 XX    0.002125   0.006354   0.007951   0.005150   0.000601
   32  O  2 YY   -0.000201  -0.001172  -0.000607   0.021446   0.004416
   33  O  2 ZZ   -0.002629  -0.006944  -0.004800   0.018650   0.001877
   34  O  2 XY    0.004311   0.009881  -0.013404   0.003770  -0.003509
   35  O  2 XZ   -0.002393  -0.007271  -0.012402  -0.007349   0.000572
   36  O  2 YZ   -0.002773   0.002615  -0.005186  -0.003650  -0.000587
   37  O  2 XX    0.009124  -0.009719  -0.023865  -0.409022  -0.320049
   38  O  2 YY    0.008836   0.001885  -0.030009  -0.204691  -0.035629
   39  O  2 ZZ    0.007250   0.000230  -0.023834  -0.241653   0.156323
   40  O  2 XY    0.000183  -0.010476   0.008036   0.029751  -0.321769
   41  O  2 XZ    0.020377   0.011132   0.019498  -0.134780   0.320564
   42  O  2 YZ   -0.005205   0.003624   0.000251  -0.034621  -0.143620
   43  H  3  S    0.031781  -0.033911   0.005006  -0.123085  -0.013711
   44  H  3  S    0.130950   0.265765   0.242712  -0.117821  -0.201934
   45  H  3  X    0.007098   0.007666   0.011292  -0.020390   0.002169
   46  H  3  Y    0.004580   0.010402  -0.012850  -0.001418  -0.013789
   47  H  3  Z   -0.003059  -0.001511  -0.003366  -0.007360   0.027482
   48  H  4  S   -0.114655   0.113863  -0.034039  -0.007025  -0.026685
   49  H  4  S   -0.601905   0.994201   0.311270   0.911278   0.178741
   50  H  4  X   -0.005780  -0.009929  -0.007309   0.006884  -0.006502
   51  H  4  Y   -0.001512  -0.008331   0.005792   0.008944   0.001705
   52  H  4  Z    0.006028  -0.000662  -0.003016  -0.007105  -0.000486
   53  H  5  S   -0.143886   0.005996  -0.025551  -0.029915  -0.080374
   54  H  5  S   -0.666634   0.284826  -1.123491  -0.600554  -0.015425
   55  H  5  X   -0.005450   0.002928  -0.006427   0.006512   0.003522
   56  H  5  Y   -0.001913  -0.004362  -0.000345  -0.003665  -0.003725
   57  H  5  Z    0.001277   0.005273  -0.001240   0.002476  -0.001053
   58  H  6  S   -0.056944  -0.058490   0.036286  -0.069872  -0.081583
   59  H  6  S   -0.253929  -0.217206   1.214222  -0.679948  -0.050652
   60  H  6  X    0.000005  -0.002805   0.006949  -0.006780   0.000741
   61  H  6  Y   -0.004077  -0.002669  -0.000786   0.000670   0.004025
   62  H  6  Z    0.004908   0.002599   0.000706  -0.002324   0.000467

                     16         17         18         19         20
                    0.6815     0.7256     0.8433     0.8619     0.8877
                     A          A          A          A          A   
    1  C  1  S    0.030356  -0.043903   0.002891  -0.026866  -0.003560
    2  C  1  S   -0.121793  -0.525813   0.239126  -0.672148  -1.132536
    3  C  1  X   -0.163055   0.233062   0.083463   0.360227   0.467248
    4  C  1  Y    0.143816  -0.299636   0.297443   0.171973  -0.081186
    5  C  1  Z    0.023005   0.029449   0.504593   0.260996   0.146033
    6  C  1  S   -0.229445   1.266500   0.534807   1.628135   2.705062
    7  C  1  X   -0.768061  -0.656047   0.421873  -0.386487  -0.807476
    8  C  1  Y   -0.436724   1.058955  -1.189959  -0.749122   0.352955
    9  C  1  Z   -0.913543   0.117648  -1.172725  -0.933231  -0.164798
   10  C  1 XX   -0.009102   0.025530  -0.019511   0.049760   0.076555
   11  C  1 YY   -0.007252   0.011247  -0.019972   0.040440   0.058242
   12  C  1 ZZ   -0.010079   0.009376  -0.017893   0.037241   0.054415
   13  C  1 XY    0.005496  -0.015806   0.012973   0.006166  -0.004956
   14  C  1 XZ    0.005710   0.001769   0.010259   0.008182  -0.004483
   15  C  1 YZ    0.003712   0.000417   0.004605  -0.006289  -0.009935
   16  C  1 XX   -0.026607  -0.344338   0.296188  -0.386554  -0.466863
   17  C  1 YY   -0.175507  -0.218335  -0.245759   0.362369  -0.451797
   18  C  1 ZZ   -0.161752  -0.413697   0.016708  -0.416419   0.235897
   19  C  1 XY   -0.059437   0.186909  -0.106177  -0.041124   0.034112
   20  C  1 XZ    0.054928  -0.072967   0.090733  -0.039462   0.078718
   21  C  1 YZ   -0.117924  -0.295931  -0.268416   0.166506   0.275992
   22  O  2  S   -0.061844  -0.002568   0.030416   0.023296   0.000911
   23  O  2  S    0.073634  -0.012236  -0.033914  -0.042312  -0.008503
   24  O  2  X    0.019914  -0.124112  -0.202316  -0.061659  -0.082115
   25  O  2  Y   -0.005028   0.010469   0.011610   0.009415   0.027004
   26  O  2  Z    0.157898   0.092431  -0.053762   0.069840   0.075348
   27  O  2  S    0.690208   0.303547  -0.905008   0.143825   0.125638
   28  O  2  X   -0.570112   0.241752   0.765556   0.279406   0.357869
   29  O  2  Y    0.115318  -0.340877   0.273209   0.103999  -0.152343
   30  O  2  Z   -0.142752  -0.015902   0.286074   0.168013  -0.203800
   31  O  2 XX    0.004932   0.012735   0.004836   0.017093   0.021129
   32  O  2 YY    0.002644  -0.002158  -0.005874  -0.002172  -0.009645
   33  O  2 ZZ    0.007678  -0.002248  -0.005898  -0.008321  -0.000461
   34  O  2 XY   -0.001890  -0.001496  -0.002471  -0.002754  -0.001342
   35  O  2 XZ    0.002715   0.002623  -0.007491   0.005283   0.001658
   36  O  2 YZ    0.002239  -0.001218   0.001472   0.000753   0.000217
   37  O  2 XX   -0.350192  -0.295231   0.311613  -0.043275  -0.338684
   38  O  2 YY    0.128623   0.028048  -0.076791   0.285284  -0.199730
   39  O  2 ZZ   -0.185301   0.021973   0.022553  -0.380152   0.225732
   40  O  2 XY   -0.093894   0.368182  -0.217170  -0.175659   0.081687
   41  O  2 XZ   -0.412871   0.060808  -0.075151  -0.088901  -0.109700
   42  O  2 YZ   -0.060425  -0.088286  -0.158008  -0.064951   0.019615
   43  H  3  S   -0.680546   0.110510   0.378328   0.090151  -0.002562
   44  H  3  S    1.178743  -0.174686  -0.706931  -0.083711   0.088768
   45  H  3  X   -0.081455  -0.008081   0.047446   0.014598  -0.005245
   46  H  3  Y    0.000861   0.009282  -0.003282  -0.017964  -0.008187
   47  H  3  Z   -0.057400   0.002467   0.009102  -0.042087  -0.012664
   48  H  4  S    0.166866  -0.236446   0.340087  -0.054900   0.237826
   49  H  4  S   -0.841602  -0.357516  -0.712760  -0.157873  -0.943704
   50  H  4  X   -0.010299  -0.010090  -0.016775  -0.023739  -0.023135
   51  H  4  Y    0.000155   0.026187  -0.003457  -0.003615  -0.002110
   52  H  4  Z    0.005894   0.011099  -0.028482  -0.004213  -0.042081
   53  H  5  S   -0.165424  -0.409010  -0.260466   0.116188   0.175692
   54  H  5  S    0.577182   0.115423   1.321783   0.060917  -0.769106
   55  H  5  X    0.010003  -0.006914  -0.012122   0.004369  -0.011418
   56  H  5  Y   -0.012111   0.004118  -0.043218   0.041343  -0.003636
   57  H  5  Z   -0.018734  -0.015709  -0.030460  -0.040368   0.048540
   58  H  6  S   -0.068605  -0.138121  -0.165943   0.245531   0.286481
   59  H  6  S    0.035161   0.707762  -0.244584  -1.141676  -0.551727
   60  H  6  X   -0.008267   0.022785  -0.023635  -0.010628   0.013477
   61  H  6  Y   -0.005500   0.009115  -0.005277  -0.066306  -0.001248
   62  H  6  Z   -0.001552   0.034790  -0.026700  -0.002835  -0.048744

                     21         22         23         24         25
                    0.9262     1.0098     1.0528     1.0895     1.1571
                     A          A          A          A          A   
    1  C  1  S   -0.038485   0.036799  -0.015590   0.008417  -0.050702
    2  C  1  S   -0.098102  -0.422252   0.009986  -0.402727  -0.420052
    3  C  1  X   -0.152886  -0.235937   0.109124   0.006132   0.180821
    4  C  1  Y    0.277092   0.065594   0.408941  -0.073678  -0.075258
    5  C  1  Z    0.263863   0.333526  -0.001635   0.082504   0.021542
    6  C  1  S   -1.239610   1.100158   0.187555  -0.987811  -0.163568
    7  C  1  X   -0.559973   0.083213   0.008771  -0.660330  -1.080349
    8  C  1  Y   -0.999617  -0.418711  -1.060288  -0.101299  -0.661156
    9  C  1  Z   -1.552746  -1.041190  -0.018904  -0.428270  -1.221663
   10  C  1 XX    0.014548   0.011934  -0.000000   0.038470   0.030129
   11  C  1 YY    0.016975   0.004131   0.003980   0.054148   0.035922
   12  C  1 ZZ    0.028833   0.009693   0.003242   0.049234   0.045155
   13  C  1 XY    0.010512   0.000665   0.001727  -0.001784  -0.000979
   14  C  1 XZ    0.016120   0.006202  -0.000151  -0.009210   0.010122
   15  C  1 YZ   -0.000849   0.003198   0.006703  -0.011028   0.012526
   16  C  1 XX   -0.292937   0.238443  -0.129487  -0.204323  -0.362852
   17  C  1 YY    0.101811  -0.150034  -0.004096   0.316799   0.090576
   18  C  1 ZZ    0.081577  -0.547570   0.070814   0.340715  -0.094808
   19  C  1 XY   -0.024519  -0.107062  -0.669624  -0.037650   0.137564
   20  C  1 XZ   -0.689965  -0.292073   0.000973  -0.033460  -0.365539
   21  C  1 YZ   -0.025495   0.061400  -0.173740  -0.205484  -0.397864
   22  O  2  S   -0.035049  -0.002164   0.020057  -0.056405   0.007322
   23  O  2  S   -0.026898   0.078686  -0.033206  -0.054391  -0.050550
   24  O  2  X    0.212542  -0.048480  -0.005523   0.370978   0.087263
   25  O  2  Y    0.055670  -0.091554  -0.518302  -0.271100  -0.220267
   26  O  2  Z    0.021963  -0.393309   0.078824  -0.360592   0.197271
   27  O  2  S    1.694327  -0.255488  -0.070260   1.480057   1.308508
   28  O  2  X   -0.900445  -0.297198   0.153897  -0.901873  -0.505500
   29  O  2  Y    0.030686   0.263952   1.297626   0.484806   0.486119
   30  O  2  Z    0.480935   0.913494  -0.116536   0.304432   0.271809
   31  O  2 XX    0.008056  -0.015556   0.006272   0.009894   0.011276
   32  O  2 YY    0.001902   0.005375  -0.004350   0.004648  -0.006846
   33  O  2 ZZ    0.007055   0.002911  -0.002030   0.007456   0.002461
   34  O  2 XY   -0.008315   0.001820   0.010514   0.012089   0.012641
   35  O  2 XZ    0.007092   0.004185  -0.003783   0.010566   0.018572
   36  O  2 YZ   -0.001071   0.001634   0.001640  -0.006243  -0.000005
   37  O  2 XX   -0.101398  -0.363573   0.051227  -0.132377   0.010264
   38  O  2 YY   -0.377074   0.277204   0.033997  -0.228238  -0.170242
   39  O  2 ZZ   -0.087535   0.402359  -0.017324  -0.393682   0.032586
   40  O  2 XY   -0.138519  -0.090854   0.088249   0.042950  -0.391468
   41  O  2 XZ   -0.296906  -0.138929   0.025920   0.032101  -0.349592
   42  O  2 YZ   -0.171045   0.193501   0.265716  -0.429808   0.417780
   43  H  3  S   -0.052497   0.339685  -0.063953   0.061812   0.023946
   44  H  3  S    0.279817  -0.294095  -0.016038   0.240831   0.206853
   45  H  3  X   -0.057939  -0.049105   0.006714  -0.009722  -0.025360
   46  H  3  Y   -0.018417   0.021191   0.130968  -0.002712   0.024345
   47  H  3  Z   -0.008578   0.095665  -0.016229   0.010422  -0.033187
   48  H  4  S   -0.540476   0.134434  -0.065594   0.409124  -0.212879
   49  H  4  S    0.602720  -0.394575   0.179228  -0.687658  -0.423063
   50  H  4  X    0.041463  -0.021874  -0.003040   0.029457   0.007362
   51  H  4  Y   -0.004287   0.004635   0.027456  -0.018435   0.007485
   52  H  4  Z    0.012647   0.032695  -0.006552  -0.035817   0.002767
   53  H  5  S   -0.293831   0.078557  -0.170603   0.270744   0.486328
   54  H  5  S    1.057387  -0.014770   0.220226  -0.110472  -0.039911
   55  H  5  X   -0.020452   0.035758   0.014627  -0.001149   0.051798
   56  H  5  Y   -0.035722  -0.014364  -0.030829   0.007833  -0.019298
   57  H  5  Z   -0.006804  -0.026024  -0.023811  -0.003041  -0.021843
   58  H  6  S    0.335823  -0.009583   0.152415  -0.051481  -0.713598
   59  H  6  S   -1.121386  -0.406199  -0.445557   0.344787   0.241360
   60  H  6  X    0.000093   0.015613   0.020451  -0.079629   0.002758
   61  H  6  Y   -0.014558  -0.028872  -0.012552  -0.019894   0.001170
   62  H  6  Z   -0.036929  -0.006105  -0.009898  -0.037857   0.011760

                     26         27         28         29         30
                    1.2052     1.3080     1.3834     1.4029     1.4656
                     A          A          A          A          A   
    1  C  1  S    0.025497   0.000428  -0.010808  -0.007222   0.008395
    2  C  1  S    0.261698  -0.033154   0.186809  -0.358845  -0.100325
    3  C  1  X   -0.113980  -0.070675   0.312500  -0.045348  -0.289001
    4  C  1  Y   -0.042647   0.082156  -0.113579   0.117938  -0.169105
    5  C  1  Z   -0.147371  -0.034954  -0.278716  -0.040806   0.174658
    6  C  1  S   -0.091044  -0.713955   2.350732   3.961602   0.536861
    7  C  1  X    0.038389  -0.212872   1.021138   2.473359   1.136843
    8  C  1  Y   -0.387118  -0.019640   0.609498  -0.509759   0.821903
    9  C  1  Z   -0.053460   0.175450   0.267174   0.147236   2.102656
   10  C  1 XX   -0.014036   0.000479  -0.001064   0.045571  -0.008056
   11  C  1 YY   -0.048797  -0.000174  -0.034079   0.008999   0.020692
   12  C  1 ZZ   -0.035597   0.017821  -0.024515   0.011788   0.009442
   13  C  1 XY   -0.003129   0.002796  -0.003271   0.001280  -0.004412
   14  C  1 XZ    0.014114  -0.005341   0.006752   0.010200  -0.018135
   15  C  1 YZ   -0.014308  -0.001883   0.006168  -0.005671   0.007409
   16  C  1 XX    0.210386  -0.174523   0.088026   0.536347  -0.077238
   17  C  1 YY   -0.050882   0.768018  -0.100223  -0.305231   0.199271
   18  C  1 ZZ   -0.293721  -0.438765  -0.365601  -0.439277   0.129071
   19  C  1 XY    0.094807  -0.238929   0.410972  -0.247824   0.527171
   20  C  1 XZ    0.018291   0.490790   0.106984  -0.107367   0.706541
   21  C  1 YZ    0.280672  -0.053716  -0.110901   0.118404   0.061731
   22  O  2  S    0.039359  -0.000831  -0.027039  -0.209860  -0.097215
   23  O  2  S    0.109085   0.002774  -0.032984  -0.080224  -0.087541
   24  O  2  X   -0.301370   0.089562  -0.079961  -0.112486   0.123901
   25  O  2  Y   -0.524033   0.245342  -0.171153   0.071435  -0.340695
   26  O  2  Z    0.144835  -0.004958  -0.562482   0.096155   0.349148
   27  O  2  S   -0.540320   0.407552  -1.440650  -1.732952  -0.390164
   28  O  2  X    0.302759  -0.301596   1.122167   1.094043   0.065264
   29  O  2  Y    0.657237  -0.124475  -0.251721   0.234955  -0.175304
   30  O  2  Z   -0.020242  -0.459801   1.105632   0.460289  -1.734189
   31  O  2 XX   -0.020243  -0.004854   0.025007   0.038260   0.009970
   32  O  2 YY   -0.004313   0.007556  -0.001752   0.018845   0.020248
   33  O  2 ZZ   -0.003435  -0.006716  -0.005120   0.026495   0.011075
   34  O  2 XY    0.005627   0.002737  -0.013260   0.009522  -0.016179
   35  O  2 XZ   -0.004553  -0.008313   0.008048   0.022214  -0.027467
   36  O  2 YZ   -0.000717  -0.000249  -0.000293   0.002895   0.002350
   37  O  2 XX    0.216882   0.095255  -0.042514  -0.867983  -0.696831
   38  O  2 YY    0.143989  -0.711841  -0.501698  -1.252397  -0.618641
   39  O  2 ZZ    0.499293   0.713272  -0.230539  -1.246267  -0.216811
   40  O  2 XY   -0.075194   0.135900  -0.065616   0.033816  -0.087046
   41  O  2 XZ   -0.213397  -0.202299  -0.318988  -0.031324   0.680940
   42  O  2 YZ   -0.574933  -0.054468   0.381972  -0.036879   0.264313
   43  H  3  S    0.026118   0.095366  -0.280885   0.098424   0.310744
   44  H  3  S   -0.137147   0.046754  -0.216152  -0.031807   0.063580
   45  H  3  X    0.008228  -0.011764  -0.009980   0.006259   0.036711
   46  H  3  Y   -0.034968   0.011238   0.010169   0.022808  -0.001223
   47  H  3  Z    0.012012   0.055130  -0.013831  -0.053861   0.045166
   48  H  4  S   -0.352467   0.047407  -0.153428  -0.189943   0.302431
   49  H  4  S    0.362951   0.025232   0.114504   0.492600   0.487964
   50  H  4  X   -0.006616  -0.043072   0.063534   0.019176  -0.050850
   51  H  4  Y   -0.079987   0.046104  -0.020843   0.033727  -0.064303
   52  H  4  Z    0.045975   0.028882   0.027025   0.011939  -0.037811
   53  H  5  S    0.286212   0.044455  -0.317507   0.404361  -0.566059
   54  H  5  S   -0.123017   0.068161  -0.283636  -0.385492  -0.235473
   55  H  5  X    0.013096  -0.019732   0.090031  -0.073686   0.011597
   56  H  5  Y    0.026209   0.016803  -0.019365   0.034889   0.031281
   57  H  5  Z    0.006224  -0.004740   0.013963   0.028168  -0.023971
   58  H  6  S    0.069510  -0.019161   0.367658  -0.126239   0.343971
   59  H  6  S   -0.186499   0.073569  -0.166438  -0.529027   0.166978
   60  H  6  X   -0.085757   0.015545  -0.101985  -0.004471  -0.005663
   61  H  6  Y   -0.014809  -0.056905   0.000165  -0.036570   0.021351
   62  H  6  Z   -0.029125   0.058155  -0.007189  -0.031689   0.031925

                     31         32         33         34         35
                    1.5722     1.7144     1.7837     1.9283     2.0604
                     A          A          A          A          A   
    1  C  1  S   -0.056589  -0.041888  -0.072568  -0.022437  -0.206743
    2  C  1  S    0.558634   0.173344   0.356375  -1.420112   0.237174
    3  C  1  X    0.562713   0.048611   0.085641   0.217665   0.541815
    4  C  1  Y   -0.003670   0.580300  -0.787380  -0.051430   0.130887
    5  C  1  Z    0.157837   0.086609   0.236480  -0.420586   0.557117
    6  C  1  S    1.679032   1.398338   1.763337  -0.190886   2.188988
    7  C  1  X    0.867806  -0.331541  -0.209520   0.791117   0.322970
    8  C  1  Y    0.029150   0.621711  -1.424976  -0.255013   0.342961
    9  C  1  Z   -0.105224  -0.077687  -0.308521  -0.513458   0.661526
   10  C  1 XX   -0.067835  -0.023604  -0.034958   0.060799  -0.069139
   11  C  1 YY   -0.014467  -0.036602  -0.048695   0.163873   0.007161
   12  C  1 ZZ   -0.026321  -0.023744  -0.039370   0.170731   0.032605
   13  C  1 XY   -0.002484  -0.008214   0.001330  -0.004659   0.003435
   14  C  1 XZ   -0.034043   0.023945   0.019927  -0.001129   0.007106
   15  C  1 YZ    0.014947   0.028674   0.026875   0.036770  -0.013073
   16  C  1 XX    0.252239  -1.005957  -1.023321   1.448253  -0.126251
   17  C  1 YY   -0.010493  -0.270871  -0.410271   0.109249  -1.101353
   18  C  1 ZZ   -0.609221  -0.048522  -0.201354   0.077056  -0.489965
   19  C  1 XY    0.031034   0.727404  -1.441937  -0.193408   0.281946
   20  C  1 XZ   -0.423629   0.241106   0.233046  -0.203517   1.044221
   21  C  1 YZ    0.478771   0.650299   0.126161   0.359218  -0.001584
   22  O  2  S    0.033812  -0.035852  -0.034744   0.005087   0.040231
   23  O  2  S   -0.148288  -0.068038  -0.075581  -0.054657  -0.106316
   24  O  2  X    0.216274  -0.027471  -0.022937   0.452844   0.637806
   25  O  2  Y   -0.111390  -0.025188   0.016429  -0.031315  -0.007001
   26  O  2  Z    0.068862  -0.170805  -0.113690   0.058252   0.030527
   27  O  2  S   -1.642614   0.878039   0.652965  -1.439097  -1.755784
   28  O  2  X    0.815539   0.347176   0.548272  -1.090527   0.140536
   29  O  2  Y    0.064850  -1.044531   1.872014   0.220640  -0.351798
   30  O  2  Z    0.752819  -0.074197  -0.103749   0.608392  -0.928785
   31  O  2 XX    0.056916   0.023511   0.041050  -0.014444   0.105891
   32  O  2 YY   -0.026214   0.009033  -0.001147   0.009519  -0.042940
   33  O  2 ZZ   -0.001360  -0.001355  -0.006818  -0.008222  -0.052946
   34  O  2 XY   -0.002806  -0.017668   0.027523  -0.008085  -0.003339
   35  O  2 XZ    0.054423  -0.012444  -0.007452  -0.024156   0.007214
   36  O  2 YZ    0.012133   0.018156   0.022230   0.012552  -0.010710
   37  O  2 XX    0.016571  -0.857911  -0.891374   1.090906  -0.156598
   38  O  2 YY   -0.362653  -0.086403  -0.151206   0.023244   0.361206
   39  O  2 ZZ    0.154718  -0.284436  -0.244493  -0.241386   0.335531
   40  O  2 XY    0.051584   0.891838  -1.290284  -0.086966   0.251493
   41  O  2 XZ    0.113497  -0.122102   0.010058  -0.521629   0.598450
   42  O  2 YZ   -0.178241   0.024448  -0.346010  -0.200290   0.030016
   43  H  3  S   -0.593827   0.253779   0.138301   0.355543   0.017717
   44  H  3  S    0.102346  -0.105995  -0.096399  -0.069100   0.103223
   45  H  3  X   -0.171730  -0.018093  -0.054190   0.265902  -0.104061
   46  H  3  Y   -0.014887   0.132047  -0.230900  -0.087276   0.032849
   47  H  3  Z   -0.034806   0.077147   0.065472  -0.129428   0.066208
   48  H  4  S    0.517986  -0.238848  -0.220359  -0.189000  -0.412851
   49  H  4  S   -0.296666  -0.139953  -0.072851   0.089037   0.184241
   50  H  4  X   -0.079564   0.156083   0.114661  -0.108645  -0.138288
   51  H  4  Y   -0.069372  -0.192752   0.081487  -0.052661   0.076844
   52  H  4  Z   -0.017456  -0.050130  -0.040513   0.118137   0.294974
   53  H  5  S   -0.227858  -0.265598  -0.195874  -0.481292   0.252717
   54  H  5  S   -0.012460  -0.051869   0.217512   0.438954  -0.388168
   55  H  5  X   -0.058896  -0.085654   0.026241   0.119930   0.110865
   56  H  5  Y   -0.014652  -0.041312  -0.055628  -0.115546  -0.002673
   57  H  5  Z   -0.074564  -0.048516  -0.056912  -0.041883   0.097309
   58  H  6  S   -0.348614  -0.579905  -0.366191  -0.372094   0.209797
   59  H  6  S    0.142517   0.212840  -0.262660   0.060275  -0.099325
   60  H  6  X    0.006218  -0.150677  -0.060224   0.069641   0.125420
   61  H  6  Y    0.006807   0.112970   0.028015   0.036541  -0.030062
   62  H  6  Z    0.041754   0.020473  -0.000378   0.052697   0.013697

                     36         37         38         39         40
                    2.2323     2.3728     2.4773     2.5165     2.5245
                     A          A          A          A          A   
    1  C  1  S   -0.146023  -0.058719  -0.248981  -0.082086  -0.130889
    2  C  1  S    0.786490  -0.391372  -0.793483  -0.059252  -0.139524
    3  C  1  X    0.360342  -0.341664  -0.368957  -0.029119   0.026733
    4  C  1  Y    0.081218   0.146969   0.191947   0.230788  -0.427590
    5  C  1  Z   -0.682450   0.060821   0.070822   0.056737   0.054651
    6  C  1  S    2.120655   0.030213   1.428034   0.932177   1.253787
    7  C  1  X   -0.230647  -0.649269  -0.982357  -0.178612  -0.134968
    8  C  1  Y   -0.065993   0.317579   0.198342   0.492154  -0.448615
    9  C  1  Z   -1.036876  -0.350910  -0.022627   0.010975  -0.384102
   10  C  1 XX   -0.069010   0.045275   0.102575   0.030914   0.025521
   11  C  1 YY   -0.047108   0.008480   0.064797   0.042812   0.045912
   12  C  1 ZZ   -0.053717   0.023933   0.076095  -0.014138   0.015926
   13  C  1 XY    0.007900   0.034158  -0.002015  -0.051693   0.004404
   14  C  1 XZ   -0.008052   0.006268  -0.006152  -0.033318  -0.041206
   15  C  1 YZ   -0.008913   0.040845   0.005167  -0.046330  -0.006682
   16  C  1 XX   -0.749204  -0.727776  -1.269547  -0.406417  -0.385590
   17  C  1 YY   -0.802286  -0.120972  -0.665696  -0.159026  -0.448794
   18  C  1 ZZ   -1.019652   0.118430  -0.562838  -0.387330  -0.578213
   19  C  1 XY    0.148967   0.500099   0.243053   0.120346  -0.626219
   20  C  1 XZ   -1.024827   0.079602   0.168380  -0.024112  -0.062377
   21  C  1 YZ    0.066387   0.302382   0.158112  -0.114605  -0.037255
   22  O  2  S   -0.022146  -0.017222  -0.003270   0.001112   0.012377
   23  O  2  S   -0.019107   0.040361   0.017562  -0.007612  -0.061134
   24  O  2  X    0.150401  -0.231491  -0.083974   0.016553   0.134108
   25  O  2  Y   -0.016696  -0.150752  -0.026693   0.017075   0.164659
   26  O  2  Z    0.178908  -0.172650  -0.153008   0.043830   0.052439
   27  O  2  S    0.600025   1.385403   1.646577   0.255911   0.130838
   28  O  2  X    0.150457  -0.215079  -0.633434  -0.044781  -0.265146
   29  O  2  Y   -0.135071  -0.381825  -0.275072  -0.254784   0.452697
   30  O  2  Z    1.208406  -0.006456  -0.246606  -0.045011   0.114149
   31  O  2 XX    0.036713  -0.020146   0.014041   0.004493   0.006987
   32  O  2 YY   -0.001826   0.009537  -0.031632   0.010232  -0.002983
   33  O  2 ZZ   -0.023965   0.009894   0.021456  -0.006497   0.009895
   34  O  2 XY   -0.006799  -0.044098   0.004673   0.042802   0.001150
   35  O  2 XZ   -0.008429  -0.005609  -0.005299   0.034288   0.035280
   36  O  2 YZ   -0.005109  -0.016033  -0.006933   0.027335   0.004110
   37  O  2 XX   -0.504424  -0.214776  -0.345625  -0.258783  -0.245339
   38  O  2 YY    0.078795  -0.080887  -0.132223   0.000669   0.070668
   39  O  2 ZZ   -0.547822  -0.095544   0.215812   0.075023   0.197586
   40  O  2 XY    0.117848   0.328119   0.331314   0.424472  -0.731560
   41  O  2 XZ   -1.325184   0.160473   0.183608   0.014896  -0.062074
   42  O  2 YZ   -0.008664  -0.079730   0.008481   0.305372  -0.259163
   43  H  3  S    0.570251  -0.085161  -0.020655   0.027618   0.082894
   44  H  3  S   -0.307837   0.059454   0.130504   0.027551   0.004704
   45  H  3  X    0.039084   0.092553   0.312286   0.127412   0.294362
   46  H  3  Y   -0.001757  -0.016577  -0.166957  -0.605168   0.727816
   47  H  3  Z    0.355878  -0.211591  -0.548308  -0.172188  -0.361395
   48  H  4  S    0.423023  -0.024889   0.069744   0.115399   0.065623
   49  H  4  S   -0.582841  -0.264063  -0.430731  -0.250905  -0.256565
   50  H  4  X   -0.106086  -0.147406  -0.041180  -0.092867  -0.038094
   51  H  4  Y    0.129588   0.481574   0.067548  -0.433085  -0.160286
   52  H  4  Z   -0.162003   0.002819  -0.160584  -0.097289  -0.111634
   53  H  5  S    0.095950  -0.089804   0.050779   0.093564   0.066305
   54  H  5  S   -0.002970   0.067031  -0.259785  -0.334172  -0.008330
   55  H  5  X    0.041277  -0.073108   0.298954   0.111608  -0.010712
   56  H  5  Y   -0.003363  -0.355716   0.377358  -0.244826  -0.150525
   57  H  5  Z   -0.015030   0.227201  -0.286827   0.510220   0.146931
   58  H  6  S    0.138254  -0.203197  -0.009248   0.111766   0.060894
   59  H  6  S   -0.313589   0.163044  -0.018866  -0.016180  -0.298173
   60  H  6  X    0.094582   0.217581   0.277115  -0.229632  -0.375903
   61  H  6  Y   -0.137734  -0.400675   0.126442  -0.027932  -0.115349
   62  H  6  Z   -0.045826   0.415971  -0.142607   0.036063  -0.039912

                     41         42         43         44         45
                    2.6293     2.6710     2.7914     2.8990     2.9464
                     A          A          A          A          A   
    1  C  1  S   -0.078435  -0.021162  -0.022102  -0.105593  -0.064007
    2  C  1  S   -0.523316  -0.082658  -0.497949  -1.026543  -0.364116
    3  C  1  X   -0.349034  -0.161389  -0.238428  -0.376941   0.063892
    4  C  1  Y   -0.189134  -0.083559  -0.086655   0.058515  -0.189146
    5  C  1  Z   -0.087973  -0.061693   0.049370  -0.265217  -0.053614
    6  C  1  S    0.353238   0.427233  -0.208895   0.026992   0.097774
    7  C  1  X   -0.556114  -0.009754  -0.359619  -0.356964  -0.085776
    8  C  1  Y   -0.441880  -0.304863   0.343638  -0.093763  -0.281078
    9  C  1  Z   -0.581865  -0.504455   0.306280  -0.402697  -0.191046
   10  C  1 XX    0.056021   0.010444   0.049804   0.109242   0.056891
   11  C  1 YY    0.071471  -0.065736   0.013856   0.064711   0.021642
   12  C  1 ZZ    0.010174   0.076889   0.050912   0.081447   0.059683
   13  C  1 XY    0.017127  -0.036401  -0.001269  -0.042501   0.011308
   14  C  1 XZ    0.036092  -0.002760   0.011585  -0.000551   0.065123
   15  C  1 YZ    0.007810  -0.016759   0.008504   0.019855  -0.054362
   16  C  1 XX   -0.828543  -0.535900  -0.156271  -0.249004   0.205189
   17  C  1 YY    0.122718  -0.292426   0.042023  -0.156152  -0.210425
   18  C  1 ZZ   -0.125691   0.350599   0.308011   0.015092  -0.183527
   19  C  1 XY   -0.194093  -0.236975  -0.279281   0.108460  -0.143769
   20  C  1 XZ   -0.012057  -0.217156   0.026857  -0.068117   0.143876
   21  C  1 YZ   -0.049698  -0.127322   0.002388   0.117672  -0.100154
   22  O  2  S   -0.022009  -0.016109  -0.017755  -0.027664   0.024089
   23  O  2  S    0.099828   0.061423   0.148041  -0.143948  -0.050307
   24  O  2  X   -0.270240  -0.158587  -0.182962  -0.140581   0.157083
   25  O  2  Y   -0.033799   0.052051   0.051577   0.141893  -0.030929
   26  O  2  Z   -0.177530  -0.109356  -0.063299   0.122867  -0.030727
   27  O  2  S    1.407900   0.657419   0.532303   1.203897  -0.253465
   28  O  2  X   -0.173891   0.097093  -0.072136  -0.946455  -0.432872
   29  O  2  Y    0.398554   0.258764   0.074263  -0.440153   0.318756
   30  O  2  Z    0.182700   0.347460  -0.213200  -0.613489  -0.009323
   31  O  2 XX   -0.019304  -0.025773   0.016625   0.041937   0.036407
   32  O  2 YY    0.037394  -0.008819  -0.014478  -0.014027  -0.025143
   33  O  2 ZZ   -0.026165   0.033223  -0.027155   0.030956  -0.013744
   34  O  2 XY   -0.015258   0.034696  -0.030322   0.068552  -0.010321
   35  O  2 XZ   -0.030870  -0.030257  -0.047162   0.110051  -0.020024
   36  O  2 YZ   -0.011282   0.036438  -0.068239   0.009830  -0.007854
   37  O  2 XX   -0.111281  -0.204428   0.209047   0.005228   0.281979
   38  O  2 YY   -0.205514  -0.040432  -0.104660  -0.216422   0.181790
   39  O  2 ZZ   -0.209815  -0.273829  -0.223838  -0.598020   0.159698
   40  O  2 XY   -0.325737  -0.168225  -0.222022   0.278422  -0.250672
   41  O  2 XZ   -0.052869  -0.081424   0.140897  -0.227293  -0.059214
   42  O  2 YZ   -0.097370   0.097233  -0.223529  -0.126450   0.014574
   43  H  3  S   -0.040002  -0.014329  -0.066374   0.344008   0.040980
   44  H  3  S    0.006812  -0.074158   0.052004   0.375605   0.082301
   45  H  3  X   -0.036997   0.066958  -0.193406  -0.666246  -0.046041
   46  H  3  Y    0.155900  -0.082763   0.284903   0.036729   0.032791
   47  H  3  Z    0.006659   0.025837   0.206492  -0.165482  -0.072622
   48  H  4  S    0.024591  -0.017855  -0.005707  -0.021632  -0.141979
   49  H  4  S   -0.308256  -0.081655  -0.145484  -0.151023   0.218407
   50  H  4  X   -0.450018  -0.479014  -0.141256  -0.066851   0.443577
   51  H  4  Y   -0.217378  -0.327329  -0.314314  -0.046619  -0.515014
   52  H  4  Z    0.242399   0.410863  -0.109724  -0.062883  -0.242403
   53  H  5  S   -0.002897   0.015244  -0.040279   0.000599   0.049784
   54  H  5  S    0.165982   0.107846  -0.289929   0.386106   0.046479
   55  H  5  X   -0.235483  -0.190490   0.549639   0.517474  -0.317763
   56  H  5  Y   -0.317870   0.257370   0.280035  -0.416107  -0.054421
   57  H  5  Z    0.125702  -0.385083   0.314193  -0.329845  -0.100464
   58  H  6  S   -0.121981  -0.055660  -0.040392  -0.062579   0.107086
   59  H  6  S   -0.151515  -0.215889   0.403715  -0.313977  -0.404958
   60  H  6  X    0.445335  -0.220749   0.244547  -0.107135   0.546743
   61  H  6  Y    0.298162  -0.412469   0.168744  -0.348729  -0.460587
   62  H  6  Z   -0.417379   0.249735   0.528732  -0.300786   0.053778

                     46         47         48         49         50
                    3.1875     3.5135     3.6320     4.0625     4.0663
                     A          A          A          A          A   
    1  C  1  S    0.183485  -0.049329   0.074526   0.653437   0.052574
    2  C  1  S    1.590780  -0.361368   1.597605   5.349085   0.485856
    3  C  1  X    0.235917  -0.150388   0.329089   1.410650   0.083629
    4  C  1  Y    0.038540   0.005900  -0.001476   0.014228  -0.002501
    5  C  1  Z    0.380070  -0.444352  -0.399039   0.216242  -0.052972
    6  C  1  S   -0.405925  -0.058294   0.056179   0.196049  -0.099184
    7  C  1  X    0.071188  -0.363670  -0.200052   1.071580   0.180968
    8  C  1  Y    0.114076  -0.079778  -0.046766  -0.029351   0.074675
    9  C  1  Z    0.330292  -0.647324  -0.612462   0.331215   0.095034
   10  C  1 XX   -0.129663   0.043665  -0.160573  -0.921862  -0.186428
   11  C  1 YY   -0.172758   0.047134  -0.144498  -0.496290   0.021980
   12  C  1 ZZ   -0.205921   0.045694  -0.162911  -0.396388  -0.008062
   13  C  1 XY   -0.028295   0.036978   0.015931   0.064712  -0.627774
   14  C  1 XZ   -0.069985  -0.034852  -0.067536  -0.039101   0.242868
   15  C  1 YZ   -0.006674   0.060365  -0.104916  -0.058933  -0.064623
   16  C  1 XX   -0.528042  -1.029240  -0.609634   0.761756   0.020402
   17  C  1 YY    0.469104   0.392641  -0.632912   0.604787   0.093525
   18  C  1 ZZ    0.164892  -0.227924  -1.117389   0.819504  -0.090206
   19  C  1 XY    0.122259  -0.093166  -0.076491  -0.005867   0.482988
   20  C  1 XZ   -0.145743  -1.313219  -1.096797   0.316681  -0.381904
   21  C  1 YZ   -0.010823   0.605955  -0.760040   0.174853   0.136753
   22  O  2  S   -0.021548  -0.016044  -0.019318  -0.049388  -0.005494
   23  O  2  S    0.267602  -0.205934  -0.020949  -0.151580  -0.043539
   24  O  2  X   -0.233762  -0.172333   0.023784   0.098136  -0.032719
   25  O  2  Y    0.086006  -0.052982   0.026466   0.003980  -0.006166
   26  O  2  Z    0.059871   0.065177   0.142268  -0.044439  -0.011454
   27  O  2  S    0.043701   2.360172   0.733630  -3.029500  -0.011946
   28  O  2  X    1.790649  -0.923959  -0.142949   3.372693   0.200602
   29  O  2  Y   -0.354338   0.117137   0.115217  -0.053729  -0.172284
   30  O  2  Z    0.200278   0.716636   0.785986   0.385538   0.264502
   31  O  2 XX   -0.115717  -0.002728   0.077939  -0.189273   0.102877
   32  O  2 YY    0.010753   0.033202  -0.051796   0.084745   0.015628
   33  O  2 ZZ    0.022069   0.061562   0.032182   0.241065  -0.093503
   34  O  2 XY    0.065948  -0.107287   0.001390  -0.024252   0.715299
   35  O  2 XZ    0.030420   0.045812   0.117996  -0.017254  -0.307154
   36  O  2 YZ   -0.051160   0.067229  -0.142221  -0.136669   0.137396
   37  O  2 XX   -0.565902  -0.472508  -1.120474  -2.503259  -0.285149
   38  O  2 YY   -0.245282  -0.285707   0.176956   0.144614  -0.050479
   39  O  2 ZZ    0.342180  -0.719816  -0.371360  -0.145021  -0.009449
   40  O  2 XY    0.197917  -0.029089  -0.097545   0.069933  -0.414701
   41  O  2 XZ    0.630239  -1.128372  -1.439197  -0.641338  -0.022594
   42  O  2 YZ   -0.105677  -0.110033   0.157642  -0.008037  -0.106458
   43  H  3  S   -0.545407   0.484087   0.724662   0.435606   0.007221
   44  H  3  S   -0.502678   0.201703   0.144056  -0.181514  -0.027312
   45  H  3  X    0.705590  -0.350974  -0.365772  -0.221848  -0.022980
   46  H  3  Y    0.046581   0.033722  -0.031353   0.001465   0.145598
   47  H  3  Z    0.401256  -0.308839  -0.522774  -0.447114  -0.104752
   48  H  4  S    0.172309   0.473076   0.442076  -0.270373   0.150171
   49  H  4  S    0.334921   0.121854  -0.034335   0.251291   0.125079
   50  H  4  X    0.321041   0.488939   0.372746  -0.323669   0.105162
   51  H  4  Y   -0.094677   0.048621  -0.080569  -0.026577   0.123639
   52  H  4  Z    0.425106   0.732935   0.458911  -0.243944   0.094163
   53  H  5  S    0.101200  -0.345016   0.376763  -0.009911  -0.090941
   54  H  5  S    0.179144  -0.191806   0.196786   0.054273  -0.029196
   55  H  5  X    0.480041   0.039740  -0.103285   0.140662  -0.051282
   56  H  5  Y   -0.314274   0.469632  -0.398425   0.077439   0.047213
   57  H  5  Z   -0.173690   0.540665  -0.367635   0.071267   0.107816
   58  H  6  S    0.008044  -0.286533   0.474981  -0.099850   0.024168
   59  H  6  S   -0.006278  -0.261146   0.152968  -0.033965   0.032448
   60  H  6  X    0.166079   0.003129   0.020874   0.168291   0.078442
   61  H  6  Y   -0.144529  -0.297690   0.571975  -0.189775   0.017592
   62  H  6  Z   -0.102461  -0.309864   0.597080  -0.162918   0.029271

                     51         52         53         54         55
                    4.2829     4.4099     4.6037     4.6556     4.7533
                     A          A          A          A          A   
    1  C  1  S   -0.060624   0.022550   0.040961   0.507178  -0.048056
    2  C  1  S   -0.480516   0.234371   0.706735   3.591976  -0.303041
    3  C  1  X    0.025681   0.089822   0.157300   0.473668  -0.070957
    4  C  1  Y   -0.026936   0.003825   0.010540   0.007492  -0.001017
    5  C  1  Z    0.003838   0.034576   0.059745  -0.000704   0.006713
    6  C  1  S    0.170039   0.220448  -0.221195  -2.344404   0.284330
    7  C  1  X   -0.231526   0.066198  -0.006379  -0.666149   0.256886
    8  C  1  Y   -0.044128  -0.022852  -0.005726  -0.019112   0.038682
    9  C  1  Z   -0.129533  -0.023059  -0.023027  -0.208703   0.211153
   10  C  1 XX    0.208896  -0.102665  -0.266903   0.123283  -0.052404
   11  C  1 YY   -0.065506   0.469844   0.097795  -0.752431  -0.762424
   12  C  1 ZZ   -0.005012  -0.447077  -0.104622  -0.563893   0.911217
   13  C  1 XY   -0.305473   0.025258   0.037430  -0.047727   0.050832
   14  C  1 XZ   -0.600152   0.089415   0.069366   0.135323  -0.135507
   15  C  1 YZ    0.091432  -0.024887   0.057074   0.144622  -0.154670
   16  C  1 XX    0.048828   0.042473   0.146734  -0.375792   0.027830
   17  C  1 YY   -0.118844  -0.240155  -0.265458   0.992227   0.472432
   18  C  1 ZZ    0.160888   0.223092  -0.179034   0.860991  -0.717009
   19  C  1 XY    0.202853  -0.027151  -0.049097   0.044900  -0.014445
   20  C  1 XZ    0.754545   0.020504  -0.076470  -0.312080  -0.013454
   21  C  1 YZ    0.028206   0.013101  -0.253011   0.011659   0.088887
   22  O  2  S   -0.002938  -0.006448  -0.010302   0.048334  -0.007156
   23  O  2  S   -0.150144  -0.050078   0.065472   0.558322  -0.028658
   24  O  2  X    0.101458  -0.008758  -0.033269   0.114870  -0.058308
   25  O  2  Y   -0.045038   0.000657   0.043552   0.002240  -0.000223
   26  O  2  Z   -0.052599  -0.023284   0.024068   0.026320   0.021103
   27  O  2  S    0.063395  -0.153963  -0.294734  -0.566788  -0.044071
   28  O  2  X   -0.373359   0.222038   0.347893   1.359392  -0.019782
   29  O  2  Y    0.056734   0.011355  -0.068559  -0.040921  -0.023006
   30  O  2  Z   -0.309988   0.046311   0.054968   0.277868   0.019422
   31  O  2 XX   -0.361834  -0.091040  -0.108956   0.660102  -0.024769
   32  O  2 YY    0.142590   0.873734   0.038243  -0.307934   0.520563
   33  O  2 ZZ    0.253597  -0.761863   0.060406  -0.472380  -0.489328
   34  O  2 XY    0.253432  -0.011352  -0.277421  -0.016727  -0.013772
   35  O  2 XZ    0.649089   0.203868  -0.152868   0.334471  -0.093626
   36  O  2 YZ    0.208406  -0.057067   1.044683   0.209334   0.088318
   37  O  2 XX    0.348654  -0.128306  -0.113736  -1.661290   0.146118
   38  O  2 YY    0.000955  -0.408794   0.034223   0.734660  -0.480709
   39  O  2 ZZ   -0.214184   0.327968   0.031353   0.658167   0.330770
   40  O  2 XY   -0.256248   0.010141   0.166680   0.015473   0.029289
   41  O  2 XZ   -0.408421  -0.099020   0.082367  -0.805302   0.171594
   42  O  2 YZ   -0.111230   0.025730  -0.567991  -0.158566  -0.059029
   43  H  3  S    0.200501  -0.016258  -0.029021   0.382516  -0.151728
   44  H  3  S    0.095988  -0.014940  -0.047434  -0.022333  -0.035069
   45  H  3  X   -0.113745   0.000621  -0.009107   0.005688   0.066578
   46  H  3  Y    0.072849  -0.007666   0.066415   0.029699   0.006947
   47  H  3  Z    0.063691  -0.067606  -0.021741  -0.303091  -0.007512
   48  H  4  S   -0.300957  -0.054592   0.037960   0.030548   0.151574
   49  H  4  S   -0.165579  -0.023953  -0.025462   0.023905   0.107845
   50  H  4  X   -0.144954  -0.043415   0.035623  -0.138217   0.141721
   51  H  4  Y    0.028365  -0.013371  -0.029599   0.004290   0.023569
   52  H  4  Z   -0.166702  -0.005824  -0.004291   0.041183   0.009048
   53  H  5  S   -0.133683   0.008034   0.274769  -0.044848   0.006035
   54  H  5  S    0.036143  -0.001783   0.189834   0.207154  -0.061012
   55  H  5  X   -0.178242   0.023215   0.166529   0.061582   0.033670
   56  H  5  Y    0.134216   0.099967  -0.195938   0.078426  -0.104968
   57  H  5  Z    0.076901  -0.104219  -0.173878   0.085455   0.050829
   58  H  6  S   -0.018730  -0.014394   0.166150  -0.087329   0.018796
   59  H  6  S    0.022131  -0.017621   0.155094   0.157275  -0.010852
   60  H  6  X    0.215639  -0.008198   0.063799   0.115095  -0.013111
   61  H  6  Y    0.041824  -0.083176   0.126895  -0.085800   0.105042
   62  H  6  Z    0.060605   0.066155   0.169518  -0.087217  -0.087545

                     56         57         58         59         60
                    4.9421     5.3320     5.4847     5.9443     7.0754
                     A          A          A          A          A   
    1  C  1  S   -0.016359   0.023266   0.066756   0.015447   0.111159
    2  C  1  S   -0.557290   0.211125   0.620022   0.760651   0.583998
    3  C  1  X   -0.125826   0.063582   0.150005   0.631722  -0.459168
    4  C  1  Y   -0.010455  -0.131092   0.054995   0.010248   0.006812
    5  C  1  Z   -0.026104   0.093497   0.236335   0.087823  -0.089394
    6  C  1  S    0.604834   0.031948   0.199280   0.252787   0.607899
    7  C  1  X    0.048186  -0.001681   0.071828  -0.046340   0.658887
    8  C  1  Y   -0.149088  -0.546343   0.422927  -0.044109   0.009639
    9  C  1  Z   -0.129485   0.107059   0.799176  -0.150910   0.240053
   10  C  1 XX    0.089503   0.117988   0.227739   1.016187  -0.551991
   11  C  1 YY    0.107641  -0.004576  -0.084364  -0.552956   0.103428
   12  C  1 ZZ   -0.084463  -0.203770  -0.468510  -0.425685   0.072485
   13  C  1 XY    0.179063   0.844163  -0.392089   0.026509   0.001097
   14  C  1 XZ   -0.027385  -0.390195  -0.809890   0.468058  -0.151767
   15  C  1 YZ   -1.135123   0.199186  -0.155279  -0.095166   0.010427
   16  C  1 XX   -0.212111  -0.022909  -0.079458  -0.603912  -0.022379
   17  C  1 YY    0.222465  -0.030279   0.038122   0.292142   0.073659
   18  C  1 ZZ    0.420469   0.182285   0.547010   0.106479   0.100791
   19  C  1 XY   -0.108253  -0.698747   0.410220  -0.037193   0.004112
   20  C  1 XZ    0.059367   0.367398   1.045806  -0.453443   0.018996
   21  C  1 YZ    1.179776  -0.170470   0.218142   0.160880  -0.057042
   22  O  2  S    0.003889  -0.003239  -0.006133  -0.025719  -0.302823
   23  O  2  S    0.145522  -0.086538  -0.135203  -2.027113  -6.814779
   24  O  2  X   -0.045503   0.017485   0.040308   0.438402  -0.404891
   25  O  2  Y   -0.046228  -0.052745   0.021223   0.003121   0.010463
   26  O  2  Z   -0.062244   0.014451   0.017500   0.098712  -0.061735
   27  O  2  S   -0.058085  -0.097945  -0.525967   2.811620  10.071682
   28  O  2  X   -0.077822   0.180487   0.670374   0.509167   0.716505
   29  O  2  Y    0.078062   0.642116  -0.418229   0.001747  -0.028461
   30  O  2  Z    0.013876  -0.255697  -0.831096   0.318638   0.038494
   31  O  2 XX    0.094973   0.092462   0.200388  -0.624615   1.473455
   32  O  2 YY   -0.154453   0.018507   0.041458   0.673416   0.763455
   33  O  2 ZZ    0.027391  -0.083147  -0.205873   0.607645   0.804158
   34  O  2 XY    0.110372   0.749251  -0.362861   0.002086  -0.018136
   35  O  2 XZ    0.177171  -0.320277  -0.713342  -0.277765   0.165301
   36  O  2 YZ    0.141620   0.156156  -0.074089   0.021331   0.019199
   37  O  2 XX    0.028556  -0.179408  -0.442240  -1.004302  -4.081913
   38  O  2 YY    0.028523  -0.004843  -0.038817  -1.069503  -3.484604
   39  O  2 ZZ   -0.130262   0.039834   0.214101  -1.070779  -3.501615
   40  O  2 XY   -0.090203  -0.614570   0.381540   0.005562   0.034690
   41  O  2 XZ   -0.094987   0.214796   0.773185  -0.097809  -0.085336
   42  O  2 YZ   -0.270996  -0.128389   0.049223  -0.060908  -0.015612
   43  H  3  S    0.045738  -0.002377  -0.125520  -0.022825   0.124489
   44  H  3  S    0.012832   0.008615   0.005496  -0.058314  -0.070595
   45  H  3  X   -0.007796  -0.037945  -0.018649  -0.038101   0.100173
   46  H  3  Y    0.069206   0.056092  -0.030240   0.012151   0.000737
   47  H  3  Z    0.032211  -0.038391  -0.040073  -0.015652   0.030152
   48  H  4  S   -0.113409  -0.121960  -0.279247   0.173766  -0.029334
   49  H  4  S   -0.010164   0.034313   0.082570  -0.008678   0.157426
   50  H  4  X   -0.083357  -0.051925  -0.150467   0.010473  -0.066721
   51  H  4  Y    0.145074  -0.077813   0.039147   0.013309  -0.019328
   52  H  4  Z    0.002242  -0.040029  -0.138948   0.153885  -0.003516
   53  H  5  S   -0.445569   0.013616  -0.028780  -0.067030   0.090349
   54  H  5  S   -0.096691   0.074223  -0.171783   0.008202  -0.061323
   55  H  5  X    0.044964  -0.009436   0.037388   0.111340   0.082040
   56  H  5  Y    0.228341   0.023368  -0.017995   0.016691  -0.072855
   57  H  5  Z    0.210232   0.003795  -0.042947   0.049886  -0.065073
   58  H  6  S   -0.475467   0.009412  -0.104577  -0.112591   0.037981
   59  H  6  S   -0.200316  -0.086763   0.137228  -0.041650  -0.051586
   60  H  6  X    0.018723   0.010265   0.064089  -0.001818   0.054727
   61  H  6  Y   -0.208098   0.004941  -0.127949  -0.012155   0.031173
   62  H  6  Z   -0.198887   0.029168  -0.103846  -0.023556   0.044695

                     61         62
                   10.6358    13.5382
                     A          A   
    1  C  1  S   -0.674163   0.056394
    2  C  1  S    6.530954   0.340592
    3  C  1  X   -0.232838  -0.095915
    4  C  1  Y   -0.006100   0.006223
    5  C  1  Z   -0.084221  -0.011984
    6  C  1  S    4.746889   0.120459
    7  C  1  X   -0.630144   0.390370
    8  C  1  Y   -0.047147   0.001461
    9  C  1  Z   -0.490081   0.151246
   10  C  1 XX   -3.051831   0.126278
   11  C  1 YY   -3.094813   0.008322
   12  C  1 ZZ   -3.076379   0.017626
   13  C  1 XY    0.011391   0.003258
   14  C  1 XZ    0.048797   0.035964
   15  C  1 YZ    0.012793  -0.002844
   16  C  1 XX   -3.090839  -0.063428
   17  C  1 YY   -3.033996   0.264003
   18  C  1 ZZ   -3.127170   0.243967
   19  C  1 XY   -0.043390  -0.002712
   20  C  1 XZ   -0.225249  -0.075183
   21  C  1 YZ   -0.047255  -0.007266
   22  O  2  S   -0.037017  -1.329605
   23  O  2  S   -0.205452  -3.803736
   24  O  2  X    0.151363  -0.108550
   25  O  2  Y   -0.002203   0.005727
   26  O  2  Z    0.018704  -0.012047
   27  O  2  S    1.431911  17.289928
   28  O  2  X   -1.025135   0.611639
   29  O  2  Y    0.071916  -0.013499
   30  O  2  Z    0.135434   0.099615
   31  O  2 XX    0.087621  -1.916535
   32  O  2 YY   -0.023000  -1.994639
   33  O  2 ZZ   -0.012195  -1.991760
   34  O  2 XY    0.005522  -0.006742
   35  O  2 XZ    0.056422   0.013381
   36  O  2 YZ   -0.021332   0.007601
   37  O  2 XX    0.270578  -5.840729
   38  O  2 YY   -0.043432  -5.518846
   39  O  2 ZZ   -0.071801  -5.501950
   40  O  2 XY   -0.036143   0.019729
   41  O  2 XZ   -0.101537  -0.022457
   42  O  2 YZ    0.059588  -0.013597
   43  H  3  S    0.011495   0.060430
   44  H  3  S    0.003165  -0.136771
   45  H  3  X    0.034351   0.082359
   46  H  3  Y   -0.006202   0.001554
   47  H  3  Z    0.010541   0.043373
   48  H  4  S    0.207554   0.009481
   49  H  4  S   -0.500585   0.125960
   50  H  4  X    0.057785  -0.039561
   51  H  4  Y   -0.022717  -0.009808
   52  H  4  Z    0.025572   0.028932
   53  H  5  S    0.166360   0.052236
   54  H  5  S   -0.299289  -0.069289
   55  H  5  X   -0.048202   0.073466
   56  H  5  Y    0.008948  -0.039115
   57  H  5  Z    0.017708  -0.027978
[...]
    2  C  1  S   -0.001639   0.002851   0.000006  -0.090250   0.378875
    3  C  1  X    0.054197   0.069073   0.071647  -0.196540   0.576132
    4  C  1  Y   -0.003470  -0.177023  -0.294672  -0.064125   0.204395
    5  C  1  Z    0.024308   0.281934  -0.202575   0.023767  -0.093393
    6  C  1  S   -2.457875   0.295599  -0.000342  -1.204067  -1.453673
    7  C  1  X    0.179142   0.500162   0.313400  -1.903732  -1.459290
    8  C  1  Y   -0.023302  -0.779973  -1.289307  -0.635705  -0.523341
    9  C  1  Z    0.097553   1.311444  -0.886335   0.251045   0.244603
   10  C  1 XX   -0.032994  -0.004254   0.001964   0.025233  -0.000205
   11  C  1 YY   -0.037251   0.000492  -0.012927  -0.019826  -0.019127
   12  C  1 ZZ   -0.036734   0.012091   0.010951  -0.019604  -0.016845
   13  C  1 XY    0.000102  -0.004690  -0.002857   0.012643   0.004754
   14  C  1 XZ    0.001621   0.007539  -0.005443   0.001946   0.002182
   15  C  1 YZ   -0.000075  -0.012572   0.004046  -0.003461  -0.003950
   16  C  1 XX   -0.024270   0.043889  -0.013907  -0.229815  -0.477962
   17  C  1 YY   -0.029724   0.014841   0.056532   0.018506   0.155155
   18  C  1 ZZ   -0.036980  -0.029003  -0.042647   0.028786   0.271131
   19  C  1 XY   -0.001403   0.023171   0.025047  -0.061328  -0.206222
   20  C  1 XZ    0.001201  -0.030741   0.031371  -0.016615   0.045094
   21  C  1 YZ    0.011989   0.044765  -0.013270  -0.003678  -0.088691
   22  O  2  S   -0.034501   0.008170  -0.000011  -0.030720   0.037111
   23  O  2  S    0.163274  -0.032521   0.000058   0.148220   0.017549
   24  O  2  X   -0.033095   0.070383  -0.015033  -0.267746   0.286159
   25  O  2  Y   -0.074881   0.041600   0.061908   0.014446   0.079396
   26  O  2  Z    0.097122  -0.035602   0.042612  -0.115688  -0.014198
   27  O  2  S    0.576208  -0.208138   0.000256   0.878377   0.873376
   28  O  2  X   -0.152552   0.250464  -0.050297  -1.311712  -0.742712
   29  O  2  Y   -0.203006   0.156840   0.206672  -0.055882  -0.108081
   30  O  2  Z    0.241108  -0.139545   0.142252  -0.382608  -0.105443
   31  O  2 XX   -0.012404  -0.000079  -0.004087  -0.011403   0.005670
   32  O  2 YY   -0.002767   0.002991   0.002085  -0.004408  -0.007902
   33  O  2 ZZ   -0.003247  -0.000705   0.001995  -0.004020  -0.011213
   34  O  2 XY   -0.000479   0.006618   0.009400  -0.000195   0.005892
   35  O  2 XZ   -0.003143  -0.010028   0.006256  -0.002214  -0.002943
   36  O  2 YZ   -0.000576  -0.001164   0.002503  -0.001546   0.001762
   37  O  2 XX    0.108831  -0.055065   0.004318   0.299434   0.708431
   38  O  2 YY    0.100423  -0.021795  -0.026777   0.065079  -0.006759
   39  O  2 ZZ    0.114156  -0.004142   0.022597   0.028092  -0.034232
   40  O  2 XY    0.001693  -0.021668  -0.006373   0.077250   0.155753
   41  O  2 XZ    0.005656   0.018774  -0.011566  -0.015794   0.072766
   42  O  2 YZ   -0.018641  -0.011150   0.008241   0.023912   0.025500
   43  H  3  S   -0.054201  -0.034479  -0.000023   0.041114  -0.049148
   44  H  3  S   -0.827744  -0.146560  -0.000398   1.097423   0.231022
   45  H  3  X   -0.002291  -0.005871  -0.000719  -0.008714   0.010183
   46  H  3  Y   -0.002170  -0.004019   0.002948   0.005727   0.012828
   47  H  3  Z    0.002344   0.003762   0.002034  -0.011409  -0.015048
   48  H  4  S    0.002295   0.082764   0.000028  -0.043772   0.090224
   49  H  4  S    1.231857   1.972455   0.001337   0.333706   0.029077
   50  H  4  X    0.000915   0.010885   0.002398  -0.004286   0.014954
   51  H  4  Y   -0.002230  -0.007070  -0.009845  -0.003441   0.013815
   52  H  4  Z    0.003568   0.014129  -0.006765   0.003486  -0.014788
   53  H  5  S   -0.004022  -0.029062   0.048593  -0.069093  -0.099181
   54  H  5  S    1.043271  -0.966225   1.749026  -0.346454   0.044560
   55  H  5  X   -0.000115  -0.001185   0.009728  -0.010212   0.008405
   56  H  5  Y   -0.000614  -0.005287  -0.010598  -0.006270   0.002305
   57  H  5  Z   -0.001924   0.011994  -0.009820  -0.001777   0.011815
   58  H  6  S   -0.003992  -0.028997  -0.048636  -0.069061  -0.099214
   59  H  6  S    1.043825  -0.964240  -1.749938  -0.346251   0.044557
   60  H  6  X   -0.000721  -0.000145  -0.003473  -0.011810   0.011063
   61  H  6  Y    0.001884  -0.009520  -0.015144   0.000273  -0.008639
   62  H  6  Z   -0.000205   0.009080  -0.007883   0.002723   0.004277

                     16         17         18         19
                    0.7215     0.7240     0.8483     0.9433
                     A          A          A          A   
    1  C  1  S   -0.014856  -0.000045   0.010675   0.000018
    2  C  1  S    0.165591   0.000660   0.088678   0.000105
    3  C  1  X    0.274415   0.108164   0.034784  -0.129152
    4  C  1  Y   -0.244400  -0.441631   0.104766   0.531129
    5  C  1  Z    0.455416  -0.301840  -0.140160   0.365398
    6  C  1  S   -0.403880  -0.001481  -0.297041  -0.000383
    7  C  1  X   -0.624018  -0.243127  -0.050980   0.342938
    8  C  1  Y    0.501048   0.992943  -0.361386  -1.410607
    9  C  1  Z   -0.955937   0.678921   0.507829  -0.970447
   10  C  1 XX   -0.003704  -0.001597  -0.006107  -0.003312
   11  C  1 YY   -0.008148   0.010308  -0.005650   0.003411
   12  C  1 ZZ   -0.016131  -0.008826  -0.009230  -0.000126
   13  C  1 XY    0.002729   0.002304   0.005586   0.007360
   14  C  1 XZ   -0.004230   0.004352  -0.007825   0.005418
   15  C  1 YZ    0.009356  -0.003210   0.000008   0.001260
   16  C  1 XX   -0.110496  -0.019228  -0.194711  -0.155507
   17  C  1 YY    0.169561   0.319309   0.159709   0.430181
   18  C  1 ZZ   -0.076872  -0.300058   0.048190  -0.274610
   19  C  1 XY   -0.022836   0.000015   0.151345   0.308750
   20  C  1 XZ   -0.159090   0.091489  -0.342383   0.309942
   21  C  1 YZ    0.309795  -0.123712  -0.037864  -0.059355
   22  O  2  S    0.034187   0.000113   0.021248  -0.000013
   23  O  2  S   -0.030471  -0.000103  -0.057603   0.000008
   24  O  2  X    0.012304   0.025307   0.013787  -0.003181
   25  O  2  Y   -0.016522  -0.103928   0.077013   0.013118
   26  O  2  Z    0.029058  -0.071343  -0.107168   0.009031
   27  O  2  S    0.032534   0.000052   0.344093   0.000167
   28  O  2  X   -0.170776   0.043820  -0.159579   0.004321
   29  O  2  Y   -0.135209  -0.182710  -0.112924  -0.018040
   30  O  2  Z    0.137459  -0.124985   0.107654  -0.012391
   31  O  2 XX    0.006383   0.004870   0.005809   0.001639
   32  O  2 YY   -0.006593  -0.003299  -0.000244   0.001025
   33  O  2 ZZ   -0.002161  -0.001580   0.016357  -0.002664
   34  O  2 XY   -0.005907  -0.011064  -0.013117  -0.004034
   35  O  2 XZ    0.013155  -0.007557   0.022907  -0.002133
   36  O  2 YZ    0.001263  -0.002615  -0.010280  -0.001825
   37  O  2 XX    0.208071  -0.040094   0.044879   0.113304
   38  O  2 YY    0.083758   0.119790  -0.099532  -0.114706
   39  O  2 ZZ    0.004100  -0.078747   0.250421   0.001307
   40  O  2 XY    0.096820   0.080396  -0.137724  -0.252809
   41  O  2 XZ   -0.093974   0.082382   0.328222  -0.185290
   42  O  2 YZ    0.047298  -0.018325  -0.332487  -0.044441
   43  H  3  S    0.025635   0.000028   0.424257  -0.000030
   44  H  3  S    0.359400   0.001304  -0.681240   0.000049
   45  H  3  X    0.046338   0.000954   0.065208   0.002494
   46  H  3  Y    0.019074  -0.003246  -0.043622  -0.010245
   47  H  3  Z   -0.011324  -0.002327   0.086475  -0.007055
   48  H  4  S   -0.410582  -0.001405  -0.123618  -0.000019
   49  H  4  S    0.070620   0.000195   0.650802   0.000468
   50  H  4  X   -0.004229  -0.003191   0.055910  -0.001750
   51  H  4  Y   -0.001426   0.013052  -0.002140   0.007269
   52  H  4  Z    0.000478   0.008984   0.022866   0.005029
   53  H  5  S    0.164933  -0.344482   0.146374  -0.248188
   54  H  5  S   -0.052061  -0.007618  -0.299372   1.472087
   55  H  5  X    0.003988  -0.007133  -0.029218   0.074661
   56  H  5  Y    0.015185   0.005801   0.003549  -0.023103
   57  H  5  Z    0.000287  -0.005806   0.025187  -0.080667
   58  H  6  S    0.162535   0.345618   0.146434   0.248389
   59  H  6  S   -0.051968   0.007341  -0.298895  -1.472463
   60  H  6  X    0.008509   0.006068  -0.020326  -0.043965
   61  H  6  Y   -0.003608  -0.001213  -0.032944  -0.103213
   62  H  6  Z   -0.012720   0.008895   0.000059  -0.006260

     ----------------------------------------------------------------
     PROPERTY VALUES FOR THE UHF   SELF-CONSISTENT FIELD WAVEFUNCTION
     ----------------------------------------------------------------

          -----------------
          ENERGY COMPONENTS
          -----------------

         WAVEFUNCTION NORMALIZATION =       1.0000000000

                ONE ELECTRON ENERGY =    -237.8732589258
                TWO ELECTRON ENERGY =      81.9941731917
           NUCLEAR REPULSION ENERGY =      40.8276301440
                                      ------------------
                       TOTAL ENERGY =    -115.0514555901

 ELECTRON-ELECTRON POTENTIAL ENERGY =      81.9941731917
  NUCLEUS-ELECTRON POTENTIAL ENERGY =    -352.9834516143
   NUCLEUS-NUCLEUS POTENTIAL ENERGY =      40.8276301440
                                      ------------------
             TOTAL POTENTIAL ENERGY =    -230.1616482786
               TOTAL KINETIC ENERGY =     115.1101926885
                 VIRIAL RATIO (V/T) =       1.9994897316

          ---------------------------------------
          MULLIKEN AND LOWDIN POPULATION ANALYSES
          ---------------------------------------

     ATOMIC MULLIKEN POPULATION IN EACH MOLECULAR ORBITAL
        ALPHA ORBITALS

                      1          2          3          4          5

                  1.000000   1.000000   1.000000   1.000000   1.000000

    1             0.000154   1.000007   0.104641   0.507794   0.247166
    2             0.999817  -0.000239   0.791591   0.179283   0.490081
    3             0.000031  -0.000003   0.087612   0.044520   0.148201
    4             0.000000   0.000082   0.005431   0.096980   0.006771
    5            -0.000001   0.000077   0.005363   0.085713   0.053916
    6            -0.000001   0.000077   0.005361   0.085710   0.053865

                      6          7          8          9

                  1.000000   1.000000   1.000000   1.000000

    1             0.400084   0.374253   0.267110   0.145524
    2             0.325867   0.439131   0.421563   0.646257
    3             0.001557   0.009179   0.045750   0.003734
    4             0.000752   0.176327   0.143331   0.000354
    5             0.135817   0.000556   0.061181   0.102033
    6             0.135923   0.000554   0.061066   0.102099

     ATOMIC MULLIKEN POPULATION IN EACH MOLECULAR ORBITAL
         BETA ORBITALS

                      1          2          3          4          5

                  1.000000   1.000000   1.000000   1.000000   1.000000

    1             0.000154   1.000007   0.104641   0.507794   0.247166
    2             0.999817  -0.000239   0.791591   0.179283   0.490081
    3             0.000031  -0.000003   0.087612   0.044520   0.148201
    4             0.000000   0.000082   0.005431   0.096980   0.006771
    5            -0.000001   0.000077   0.005363   0.085713   0.053916
    6            -0.000001   0.000077   0.005361   0.085710   0.053865

                      6          7          8          9

                  1.000000   1.000000   1.000000   1.000000

    1             0.400084   0.374253   0.267110   0.145524
    2             0.325867   0.439131   0.421563   0.646257
    3             0.001557   0.009179   0.045750   0.003734
    4             0.000752   0.176327   0.143331   0.000354
    5             0.135817   0.000556   0.061181   0.102033
    6             0.135923   0.000554   0.061066   0.102099

     ATOMIC SPIN POPULATION (ALPHA MINUS BETA)
       ATOM         MULL.POP.                    LOW.POP.
    1 C             0.000000                     0.000000
    2 O             0.000000                     0.000000
    3 H             0.000000                     0.000000
    4 H             0.000000                     0.000000
    5 H             0.000000                     0.000000
    6 H             0.000000                     0.000000


          ********* ALL ELECTRONS ********

               ----- POPULATIONS IN EACH AO -----
                             MULLIKEN      LOWDIN
              1  C  1  S      1.99603     1.95585
              2  C  1  S      0.57004     0.26149
              3  C  1  X      0.55506     0.50244
              4  C  1  Y      0.70022     0.59868
              5  C  1  Z      0.71149     0.60844
              6  C  1  S      0.42567     0.24951
              7  C  1  X      0.17047     0.28241
              8  C  1  Y      0.33256     0.45457
              9  C  1  Z      0.35556     0.46427
             10  C  1 XX      0.02397     0.09190
             11  C  1 YY      0.02099     0.08924
             12  C  1 ZZ      0.02033     0.08897
             13  C  1 XY      0.00229     0.00241
             14  C  1 XZ      0.00285     0.00305
             15  C  1 YZ      0.00127     0.00117
             16  C  1 XX      0.05260     0.17289
             17  C  1 YY      0.04409     0.16969
             18  C  1 ZZ      0.04048     0.15228
             19  C  1 XY      0.02775     0.09815
             20  C  1 XZ      0.03241     0.11949
             21  C  1 YZ      0.00735     0.01835
             22  O  2  S      2.00226     1.97431
             23  O  2  S      0.87702     0.50043
             24  O  2  X      0.83108     0.76967
             25  O  2  Y      1.08036     1.03422
             26  O  2  Z      0.98226     0.91869
             27  O  2  S      1.03174     0.35798
             28  O  2  X      0.49339     0.53951
             29  O  2  Y      0.73703     0.70091
             30  O  2  Z      0.63730     0.63557
             31  O  2 XX     -0.00634     0.18566
             32  O  2 YY     -0.01624     0.17594
             33  O  2 ZZ     -0.01256     0.17913
             34  O  2 XY      0.00167     0.00154
             35  O  2 XZ      0.00149     0.00119
             36  O  2 YZ      0.00182     0.00156
             37  O  2 XX     -0.01274     0.10585
             38  O  2 YY     -0.02564     0.08298
             39  O  2 ZZ     -0.03151     0.08644
             40  O  2 XY      0.00568     0.03707
             41  O  2 XZ      0.00439     0.04932
             42  O  2 YZ      0.00424     0.00844
             43  H  3  S      0.51262     0.43757
             44  H  3  S      0.12543     0.18942
             45  H  3  X      0.00964     0.02913
             46  H  3  Y      0.01315     0.03796
             47  H  3  Z      0.02031     0.04670
             48  H  4  S      0.53499     0.47383
             49  H  4  S      0.31134     0.32133
             50  H  4  X      0.00228     0.00690
             51  H  4  Y      0.00385     0.00994
             52  H  4  Z      0.00760     0.01669
             53  H  5  S      0.53713     0.47521
             54  H  5  S      0.33843     0.33659
             55  H  5  X      0.00330     0.00855
             56  H  5  Y      0.00296     0.00844
             57  H  5  Z      0.00748     0.01607
             58  H  6  S      0.53712     0.48170
             59  H  6  S      0.33844     0.33831
             60  H  6  X      0.00140     0.00513
             61  H  6  Y      0.01020     0.02123
             62  H  6  Z      0.00215     0.00763

          ----- MULLIKEN ATOMIC OVERLAP POPULATIONS -----
          (OFF-DIAGONAL ELEMENTS NEED TO BE MULTIPLIED BY 2)

             1           2           3           4           5

    1    4.6472231
    2    0.2570476   8.0858857
    3   -0.0428015   0.3309335   0.3959725
    4    0.4090728  -0.0234933   0.0052296   0.5313187
    5    0.4114661  -0.0318374  -0.0040916  -0.0310322   0.5852460
    6    0.4114564  -0.0318339  -0.0040835  -0.0310386  -0.0404422

             6

    6    0.5852502

          TOTAL MULLIKEN AND LOWDIN ATOMIC POPULATIONS
       ATOM         MULL.POP.    CHARGE          LOW.POP.     CHARGE
    1 C             6.093465   -0.093465         6.385253   -0.385253
    2 O             8.586702   -0.586702         8.346416   -0.346416
    3 H             0.681159    0.318841         0.740771    0.259229
    4 H             0.860057    0.139943         0.828694    0.171306
    5 H             0.889309    0.110691         0.844858    0.155142
    6 H             0.889308    0.110692         0.854008    0.145992

          -------------------------------
          BOND ORDER AND VALENCE ANALYSIS     BOND ORDER THRESHOLD=0.050
          -------------------------------

                   BOND                       BOND                       BOND
  ATOM PAIR DIST  ORDER      ATOM PAIR DIST  ORDER      ATOM PAIR DIST  ORDER
    1   2  1.399  0.964        1   4  1.082  0.969        1   5  1.088  0.971
    1   6  1.088  0.971        2   3  0.940  0.888

                       TOTAL       BONDED        FREE
      ATOM            VALENCE     VALENCE     VALENCE
    1 C                 3.875       3.875      -0.000
    2 O                 1.854       1.854      -0.000
    3 H                 0.890       0.890      -0.000
    4 H                 0.953       0.953      -0.000
    5 H                 0.951       0.951      -0.000
    6 H                 0.951       0.951      -0.000

          -----------------------------------------
          ATOMIC SPIN DENSITY AT THE NUCLEUS (A.U.)
          -----------------------------------------
                            SPIN DENS    ALPHA DENS     BETA DENS
    1  C            6.0     0.0000000      58.93000      58.93000
    2  O            8.0     0.0000000     146.07887     146.07887
    3  H            1.0     0.0000000       0.21122       0.21122
    4  H            1.0     0.0000000       0.21702       0.21702
    5  H            1.0     0.0000000       0.21765       0.21765
    6  H            1.0     0.0000000       0.21765       0.21765

          ---------------------
          ELECTROSTATIC MOMENTS
          ---------------------

 POINT   1           X           Y           Z (BOHR)    CHARGE
                 1.322628    0.278621   -0.097184        0.00 (A.U.)
         DX          DY          DZ         /D/  (DEBYE)
    -0.749527   -0.974453    1.151786    1.684624
 ...... END OF PROPERTY EVALUATION ......
 STEP CPU TIME =     0.02 TOTAL CPU TIME =       21.7 (    0.4 MIN)
 TOTAL WALL CLOCK TIME=       21.7 SECONDS, CPU UTILIZATION IS 100.00%
  $VIB   
          IVIB=   0 IATOM=   0 ICOORD=   0 E=     -115.0514555901
 -2.920279266E-05-2.755829451E-05 1.025503842E-05 2.090926027E-05 1.600711148E-05
 -2.091037995E-06-8.441187513E-06 4.048800546E-07-3.434469527E-07 6.742668213E-06
  2.136060087E-06 6.459228281E-06 1.523756019E-05-4.656051932E-06-1.698560153E-05
 -5.245506927E-06 1.366629425E-05 2.705819764E-06
 -7.495265788E-01-9.744526290E-01 1.151786097E+00
 ......END OF GEOMETRY SEARCH......
 STEP CPU TIME =     0.00 TOTAL CPU TIME =       21.7 (    0.4 MIN)
 TOTAL WALL CLOCK TIME=       21.7 SECONDS, CPU UTILIZATION IS 100.00%
               990114  WORDS OF DYNAMIC MEMORY USED
 EXECUTION OF GAMESS TERMINATED NORMALLY Wed Mar  9 22:00:08 2016
 DDI: 263640 bytes (0.3 MB / 0 MWords) used by master data server.

 ----------------------------------------
 CPU timing information for all processes
 ========================================
 0: 20.343 + 1.340 = 21.683
 ----------------------------------------
 ddikick.x: exited gracefully.
----- accounting info -----
Files used on the master node andre-mint were:
-rw-r--r-- 1 andrepd andrepd   753157 Mar  9 22:00 ./7a.dat
-rw-r--r-- 1 andrepd andrepd      348 Mar  9 21:59 ./7a.F05
-rw-r--r-- 1 andrepd andrepd 22321984 Mar  9 22:00 ./7a.F08
-rw-r--r-- 1 andrepd andrepd  2094080 Mar  9 22:00 ./7a.F10
-rw-r--r-- 1 andrepd andrepd      348 Mar  9 21:59 ./7a.inp
-rw-r--r-- 1 andrepd andrepd   340578 Mar  9 22:00 ./7a.out
Qua Mar  9 22:00:11 WET 2016
0.0u 0.0s 0:24.76 0.2% 0+0k 0+8io 0pf+0w
