----- GAMESS execution script 'rungms' -----
This job is running on host andre-mint
under operating system Linux at Qua Mar 9 22:48:14 WET 2016
Available scratch disk space (Kbyte units) at beginning of the job is
Filesystem     1K-blocks     Used Available Use% Mounted on
/dev/sda5       72784020 71003832    282224 100% /home
GAMESS temporary binary files will be written to .
GAMESS supplementary output files will be written to .
Copying input file 7_CH3O-_a.inp to your run's scratch directory...

 Distributed Data Interface kickoff program.
 Initiating 1 compute processes on 1 nodes to run the following command:
 /home/andrepd/Development/gamess/gamess//gamess.69.x 7_CH3O-_a 

          ******************************************************
          *         GAMESS VERSION =  5 DEC 2014 (R1)          *
          *             FROM IOWA STATE UNIVERSITY             *
          * M.W.SCHMIDT, K.K.BALDRIDGE, J.A.BOATZ, S.T.ELBERT, *
          *   M.S.GORDON, J.H.JENSEN, S.KOSEKI, N.MATSUNAGA,   *
          *          K.A.NGUYEN, S.J.SU, T.L.WINDUS,           *
          *       TOGETHER WITH M.DUPUIS, J.A.MONTGOMERY       *
          *         J.COMPUT.CHEM.  14, 1347-1363(1993)        *
          **************** 64 BIT LINUX VERSION ****************

  SINCE 1993, STUDENTS AND POSTDOCS WORKING AT IOWA STATE UNIVERSITY
  AND ALSO IN THEIR VARIOUS JOBS AFTER LEAVING ISU HAVE MADE IMPORTANT
  CONTRIBUTIONS TO THE CODE:
     IVANA ADAMOVIC, CHRISTINE AIKENS, YURI ALEXEEV, POOJA ARORA,
     ANDREY ASADCHEV, ROB BELL, PRADIPTA BANDYOPADHYAY, JONATHAN BENTZ,
     BRETT BODE, KURT BRORSEN, CALEB CARLIN, GALINA CHABAN, WEI CHEN,
     CHEOL HO CHOI, PAUL DAY, ALBERT DEFUSCO, NUWAN DESILVA, TIM DUDLEY,
     DMITRI FEDOROV, GRAHAM FLETCHER, MARK FREITAG, KURT GLAESEMANN,
     DAN KEMP, GRANT MERRILL, NORIYUKI MINEZAWA, JONATHAN MULLIN,
     TAKESHI NAGATA, SEAN NEDD, HEATHER NETZLOFF, BOSILJKA NJEGIC, RYAN OLSON,
     MIKE PAK, SPENCER PRUITT, LUKE ROSKOP, JIM SHOEMAKER, LYUDMILA SLIPCHENKO,
     TONY SMITH, SAROM SOK, JIE SONG, TETSUYA TAKETSUGU, SIMON WEBB,
     PENG XU, SOOHAENG YOO, FEDERICO ZAHARIEV

  ADDITIONAL CODE HAS BEEN PROVIDED BY COLLABORATORS IN OTHER GROUPS:
     IOWA STATE UNIVERSITY:
          JOE IVANIC, AARON WEST, LAIMUTIS BYTAUTAS, KLAUS RUEDENBERG
     UNIVERSITY OF TOKYO: KIMIHIKO HIRAO, TAKAHITO NAKAJIMA,
          TAKAO TSUNEDA, MUNEAKI KAMIYA, SUSUMU YANAGISAWA,
          KIYOSHI YAGI, MAHITO CHIBA, SEIKEN TOKURA, NAOAKI KAWAKAMI
     UNIVERSITY OF AARHUS: FRANK JENSEN
     UNIVERSITY OF IOWA: VISVALDAS KAIRYS, HUI LI
     NATIONAL INST. OF STANDARDS AND TECHNOLOGY: WALT STEVENS, DAVID GARMER
     UNIVERSITY OF PISA: BENEDETTA MENNUCCI, JACOPO TOMASI
     UNIVERSITY OF MEMPHIS: HENRY KURTZ, PRAKASHAN KORAMBATH
     UNIVERSITY OF ALBERTA: TOBY ZENG, MARIUSZ KLOBUKOWSKI
     UNIVERSITY OF NEW ENGLAND: MARK SPACKMAN
     MIE UNIVERSITY: HIROAKI UMEDA
     NAT. INST. OF ADVANCED INDUSTRIAL SCIENCE AND TECHNOLOGY: KAZUO KITAURA
     MICHIGAN STATE UNIVERSITY:
          KAROL KOWALSKI, MARTA WLOCH, JEFFREY GOUR, JESSE LUTZ,
          WEI LI, PIOTR PIECUCH
     UNIVERSITY OF SILESIA: MONIKA MUSIAL, STANISLAW KUCHARSKI
     FACULTES UNIVERSITAIRES NOTRE-DAME DE LA PAIX:
          OLIVIER QUINET, BENOIT CHAMPAGNE
     UNIVERSITY OF CALIFORNIA - SANTA BARBARA: BERNARD KIRTMAN
     INSTITUTE FOR MOLECULAR SCIENCE:
          KAZUYA ISHIMURA, MICHIO KATOUDA, AND SHIGERU NAGASE
     UNIVERSITY OF NOTRE DAME: ANNA POMOGAEVA, DAN CHIPMAN
     KYUSHU UNIVERSITY:
          HARUYUKI NAKANO,
          FENG LONG GU, JACEK KORCHOWIEC, MARCIN MAKOWSKI, AND YURIKO AOKI,
          HIROTOSHI MORI AND EISAKU MIYOSHI
     PENNSYLVANIA STATE UNIVERSITY:
          TZVETELIN IORDANOV, CHET SWALINA, JONATHAN SKONE,
          SHARON HAMMES-SCHIFFER
     WASEDA UNIVERSITY:
          MASATO KOBAYASHI, TOMOKO AKAMA, TSUGUKI TOUMA,
          TAKESHI YOSHIKAWA, YASUHIRO IKABATA, HIROMI NAKAI
     NANJING UNIVERSITY: SHUHUA LI
     UNIVERSITY OF NEBRASKA:
          PEIFENG SU, DEJUN SI, NANDUN THELLAMUREGE, YALI WANG, HUI LI
     UNIVERSITY OF ZURICH: ROBERTO PEVERATI, KIM BALDRIDGE
     N. COPERNICUS UNIVERSITY AND JACKSON STATE UNIVERSITY:
          MARIA BARYSZ
     UNIVERSITY OF COPENHAGEN: CASPER STEINMANN
     TOKYO INSTITUTE OF TECHNOLOGY: HIROYA NAKATA
     NAGOYA UNIVERSITY: YOSHIO NISHIMOTO, STEPHAN IRLE

 EXECUTION OF GAMESS BEGUN Wed Mar  9 22:48:14 2016

            ECHO OF THE FIRST FEW INPUT CARDS -
 INPUT CARD>!   File created by MacMolPlt 7.6.2                                             
 INPUT CARD> $CONTRL SCFTYP=UHF RUNTYP=OPTIMIZE MAXIT=200 MULT=1 ICHARG=-1 $END             
 INPUT CARD> $BASIS GBASIS=N31 NGAUSS=6 NDFUNC=2 NPFUNC=1 $END                              
 INPUT CARD>! $SCF DIRSCF=.TRUE. $END                                                       
 INPUT CARD> $DATA                                                                          
 INPUT CARD>CH3OH                                                                           
 INPUT CARD>C1                                                                              
 INPUT CARD>C  6.0  0.00  0.00  0.00                                                        
 INPUT CARD>O  8.0  1.00  0.00  0.20                                                        
 INPUT CARD>H  1.0  -1.00  0.00  -1.00                                                      
 INPUT CARD>H  1.0  0.00  1.00  1.00                                                        
 INPUT CARD>H  1.0  0.00  -1.00  -1.00                                                      
 INPUT CARD> $END                                                                           
 INPUT CARD>!H  1.0  2.00  0.00  1.00                                                       
    1000000 WORDS OF MEMORY AVAILABLE

     BASIS OPTIONS
     -------------
     GBASIS=N31          IGAUSS=       6      POLAR=POPN31  
     NDFUNC=       2     NFFUNC=       0     DIFFSP=       F
     NPFUNC=       1      DIFFS=       F     BASNAM=        
     SPLIT2=     2.00000000     0.50000000


     RUN TITLE
     ---------
 CH3OH                                                                           

 THE POINT GROUP OF THE MOLECULE IS C1      
 THE ORDER OF THE PRINCIPAL AXIS IS     0

 ATOM      ATOMIC                      COORDINATES (BOHR)
           CHARGE         X                   Y                   Z
 C           6.0     0.0000000000        0.0000000000        0.0000000000
 O           8.0     1.8897259877        0.0000000000        0.3779451975
 H           1.0    -1.8897259877        0.0000000000       -1.8897259877
 H           1.0     0.0000000000        1.8897259877        1.8897259877
 H           1.0     0.0000000000       -1.8897259877       -1.8897259877

          INTERNUCLEAR DISTANCES (ANGS.)
          ------------------------------

                1 C          2 O          3 H          4 H          5 H     

   1 C       0.0000000    1.0198039 *  1.4142136 *  1.4142136 *  1.4142136 *
   2 O       1.0198039 *  0.0000000    2.3323808 *  1.6248077 *  1.8547237 *
   3 H       1.4142136 *  2.3323808 *  0.0000000    2.4494897 *  1.4142136 *
   4 H       1.4142136 *  1.6248077 *  2.4494897 *  0.0000000    2.8284271 *
   5 H       1.4142136 *  1.8547237 *  1.4142136 *  2.8284271 *  0.0000000  

  * ... LESS THAN  3.000


     ATOMIC BASIS SET
     ----------------
 THE CONTRACTED PRIMITIVE FUNCTIONS HAVE BEEN UNNORMALIZED
 THE CONTRACTED BASIS FUNCTIONS ARE NOW NORMALIZED TO UNITY

  SHELL TYPE  PRIMITIVE        EXPONENT          CONTRACTION COEFFICIENT(S)

 C         

      1   S       1          3047.5248800    0.001834737132
      1   S       2           457.3695180    0.014037322813
      1   S       3           103.9486850    0.068842622264
      1   S       4            29.2101553    0.232184443216
      1   S       5             9.2866630    0.467941348435
      1   S       6             3.1639270    0.362311985337

      2   L       7             7.8682723   -0.119332419775    0.068999066591
      2   L       8             1.8812885   -0.160854151696    0.316423960957
      2   L       9             0.5442493    1.143456437840    0.744308290898

      3   L      10             0.1687145    1.000000000000    1.000000000000

      4   D      11             1.6000000    1.000000000000

      5   D      12             0.4000000    1.000000000000

 O         

      6   S      13          5484.6716600    0.001831074430
      6   S      14           825.2349460    0.013950172200
      6   S      15           188.0469580    0.068445078098
      6   S      16            52.9645000    0.232714335992
      6   S      17            16.8975704    0.470192897984
      6   S      18             5.7996353    0.358520852987

      7   L      19            15.5396162   -0.110777549525    0.070874268231
      7   L      20             3.5999336   -0.148026262701    0.339752839147
      7   L      21             1.0137618    1.130767015354    0.727158577316

      8   L      22             0.2700058    1.000000000000    1.000000000000

      9   D      23             1.6000000    1.000000000000

     10   D      24             0.4000000    1.000000000000

 H         

     11   S      25            18.7311370    0.033494604338
     11   S      26             2.8253944    0.234726953484
     11   S      27             0.6401217    0.813757326146

     12   S      28             0.1612778    1.000000000000

     13   P      29             1.1000000    1.000000000000

 H         

     14   S      30            18.7311370    0.033494604338
     14   S      31             2.8253944    0.234726953484
     14   S      32             0.6401217    0.813757326146

     15   S      33             0.1612778    1.000000000000

     16   P      34             1.1000000    1.000000000000

 H         

     17   S      35            18.7311370    0.033494604338
     17   S      36             2.8253944    0.234726953484
     17   S      37             0.6401217    0.813757326146

     18   S      38             0.1612778    1.000000000000

     19   P      39             1.1000000    1.000000000000

 TOTAL NUMBER OF BASIS SET SHELLS             =   19
 NUMBER OF CARTESIAN GAUSSIAN BASIS FUNCTIONS =   57
 NUMBER OF ELECTRONS                          =   18
 CHARGE OF MOLECULE                           =   -1
 SPIN MULTIPLICITY                            =    1
 NUMBER OF OCCUPIED ORBITALS (ALPHA)          =    9
 NUMBER OF OCCUPIED ORBITALS (BETA )          =    9
 TOTAL NUMBER OF ATOMS                        =    5
 THE NUCLEAR REPULSION ENERGY IS       39.1229446530

     $CONTRL OPTIONS
     ---------------
 SCFTYP=UHF          RUNTYP=OPTIMIZE     EXETYP=RUN     
 MPLEVL=       0     CITYP =NONE         CCTYP =NONE         VBTYP =NONE    
 DFTTYP=NONE         TDDFT =NONE    
 MULT  =       1     ICHARG=      -1     NZVAR =       0     COORD =UNIQUE  
 PP    =NONE         RELWFN=NONE         LOCAL =NONE         NUMGRD=       F
 ISPHER=      -1     NOSYM =       0     MAXIT =     200     UNITS =ANGS    
 PLTORB=       F     MOLPLT=       F     AIMPAC=       F     FRIEND=        
 NPRINT=       7     IREST =       0     GEOM  =INPUT   
 NORMF =       0     NORMP =       0     ITOL  =      20     ICUT  =       9
 INTTYP=BEST         GRDTYP=BEST         QMTTOL= 1.0E-06

     $SYSTEM OPTIONS
     ---------------
  REPLICATED MEMORY=     1000000 WORDS (ON EVERY NODE).
 DISTRIBUTED MEMDDI=           0 MILLION WORDS IN AGGREGATE,
 MEMDDI DISTRIBUTED OVER   1 PROCESSORS IS           0 WORDS/PROCESSOR.
 TOTAL MEMORY REQUESTED ON EACH PROCESSOR=     1000000 WORDS.
 TIMLIM=      525600.00 MINUTES, OR     365.0 DAYS.
 PARALL= F  BALTYP=  DLB     KDIAG=    0  COREFL= F
 MXSEQ2=     300 MXSEQ3=     150  mem10=         0

          ----------------
          PROPERTIES INPUT
          ----------------

     MOMENTS            FIELD           POTENTIAL          DENSITY
 IEMOM =       1   IEFLD =       0   IEPOT =       0   IEDEN =       0
 WHERE =COMASS     WHERE =NUCLEI     WHERE =NUCLEI     WHERE =NUCLEI  
 OUTPUT=BOTH       OUTPUT=BOTH       OUTPUT=BOTH       OUTPUT=BOTH    
 IEMINT=       0   IEFINT=       0                     IEDINT=       0
                                                       MORB  =       0
          EXTRAPOLATION IN EFFECT
          SOSCF IN EFFECT
          DIIS or SOSCF will be reset if energy rises
 ORBITAL PRINTING OPTION: NPREO=     1    57     2     1

     -------------------------------
     INTEGRAL TRANSFORMATION OPTIONS
     -------------------------------
     NWORD  =            0
     CUTOFF = 1.0E-09     MPTRAN =       0
     DIRTRF =       F     AOINTS =DUP     

          ----------------------
          INTEGRAL INPUT OPTIONS
          ----------------------
 NOPK  =       1 NORDER=       0 SCHWRZ=       F

     ------------------------------------------
     THE POINT GROUP IS C1 , NAXIS= 0, ORDER= 1
     ------------------------------------------

     DIMENSIONS OF THE SYMMETRY SUBSPACES ARE
 A   =   57

 ..... DONE SETTING UP THE RUN .....
 STEP CPU TIME =     0.01 TOTAL CPU TIME =        0.0 (    0.0 MIN)
 TOTAL WALL CLOCK TIME=        0.0 SECONDS, CPU UTILIZATION IS  50.00%


          -----------------------------
          STATIONARY POINT LOCATION RUN
          -----------------------------

 OBTAINING INITIAL HESSIAN, HESS=GUESS   
 CARTESIAN COORDINATE OPTIMIZATION USING BADGER'S RULE FORCE CONSTANT GUESS

          PARAMETERS CONTROLLING GEOMETRY SEARCH ARE
          METHOD =QA                  UPHESS =BFGS    
          NNEG   =         0          NFRZ   =         0
          NSTEP  =        50          IFOLOW =         1
          HESS   =GUESS               RESTAR =         F
          IHREP  =         0          HSSEND =         F
          NPRT   =         0          NPUN   =         0
          OPTTOL = 1.000E-04          RMIN   = 1.500E-03
          RMAX   = 1.000E-01          RLIM   = 7.000E-02
          DXMAX  = 3.000E-01          PURIFY =         F
          MOVIE  =         F          TRUPD  =         T
          TRMAX  = 5.000E-01          TRMIN  = 5.000E-02
          ITBMAT =         5          STPT   =         F
          STSTEP = 1.000E-02          PROJCT=          T

 BEGINNING GEOMETRY SEARCH POINT NSERCH=   0 ...

 COORDINATES OF ALL ATOMS ARE (ANGS)
   ATOM   CHARGE       X              Y              Z
 ------------------------------------------------------------
 C           6.0   0.0000000000   0.0000000000   0.0000000000
 O           8.0   1.0000000000   0.0000000000   0.2000000000
 H           1.0  -1.0000000000   0.0000000000  -1.0000000000
 H           1.0   0.0000000000   1.0000000000   1.0000000000
 H           1.0   0.0000000000  -1.0000000000  -1.0000000000

          ********************
          1 ELECTRON INTEGRALS
          ********************
 ...... END OF ONE-ELECTRON INTEGRALS ......
 STEP CPU TIME =     0.00 TOTAL CPU TIME =        0.0 (    0.0 MIN)
 TOTAL WALL CLOCK TIME=        0.0 SECONDS, CPU UTILIZATION IS  50.00%

          -------------
          GUESS OPTIONS
          -------------
          GUESS =HUCKEL            NORB  =       0          NORDER=       0
          MIX   =       F          PRTMO =       F          PUNMO =       F
          TOLZ  = 1.0E-08          TOLE  = 1.0E-05
          SYMDEN=       F          PURIFY=       F

 INITIAL GUESS ORBITALS GENERATED BY HUCKEL   ROUTINE.
 HUCKEL GUESS REQUIRES     28025 WORDS.

 SYMMETRIES FOR INITIAL GUESS ORBITALS FOLLOW.  ALPHA SET(S).
     9 ORBITALS ARE OCCUPIED (    2 CORE ORBITALS).
     3=A        4=A        5=A        6=A        7=A        8=A        9=A   
    10=A       11=A       12=A       13=A       14=A       15=A       16=A   
    17=A       18=A       19=A   

 SYMMETRIES FOR INITIAL GUESS ORBITALS FOLLOW.   BETA SET(S).
     9 ORBITALS ARE OCCUPIED (    2 CORE ORBITALS).
     3=A        4=A        5=A        6=A        7=A        8=A        9=A   
    10=A       11=A       12=A       13=A       14=A       15=A       16=A   
    17=A       18=A       19=A   
 ...... END OF INITIAL ORBITAL SELECTION ......
 STEP CPU TIME =     0.00 TOTAL CPU TIME =        0.0 (    0.0 MIN)
 TOTAL WALL CLOCK TIME=        0.0 SECONDS, CPU UTILIZATION IS  33.33%

                    ----------------------
                    AO INTEGRAL TECHNOLOGY
                    ----------------------
     S,P,L SHELL ROTATED AXIS INTEGRALS, REPROGRAMMED BY
        KAZUYA ISHIMURA (IMS) AND JOSE SIERRA (SYNSTAR).
     S,P,D,L SHELL ROTATED AXIS INTEGRALS PROGRAMMED BY
        KAZUYA ISHIMURA (INSTITUTE FOR MOLECULAR SCIENCE).
     S,P,D,F,G SHELL TO TOTAL QUARTET ANGULAR MOMENTUM SUM 5,
        ERIC PROGRAM BY GRAHAM FLETCHER (ELORET AND NASA ADVANCED
        SUPERCOMPUTING DIVISION, AMES RESEARCH CENTER).
     S,P,D,F,G,L SHELL GENERAL RYS QUADRATURE PROGRAMMED BY
        MICHEL DUPUIS (PACIFIC NORTHWEST NATIONAL LABORATORY).

          --------------------
          2 ELECTRON INTEGRALS
          --------------------

 THE -PK- OPTION IS OFF, THE INTEGRALS ARE NOT IN SUPERMATRIX FORM.
 STORING   15000 INTEGRALS/RECORD ON DISK, USING 12 BYTES/INTEGRAL.
 TWO ELECTRON INTEGRAL EVALUATION REQUIRES   90586 WORDS OF MEMORY.
 II,JST,KST,LST =  1  1  1  1 NREC =         1 INTLOC =    1
 II,JST,KST,LST =  2  1  1  1 NREC =         1 INTLOC =    2
 II,JST,KST,LST =  3  1  1  1 NREC =         1 INTLOC =   34
 II,JST,KST,LST =  4  1  1  1 NREC =         1 INTLOC =  214
 II,JST,KST,LST =  5  1  1  1 NREC =         1 INTLOC = 1189
 II,JST,KST,LST =  6  1  1  1 NREC =         1 INTLOC = 4201
 II,JST,KST,LST =  7  1  1  1 NREC =         1 INTLOC = 7154
 II,JST,KST,LST =  8  1  1  1 NREC =         2 INTLOC = 7834
 II,JST,KST,LST =  9  1  1  1 NREC =         4 INTLOC = 2188
 II,JST,KST,LST = 10  1  1  1 NREC =         7 INTLOC =13918
 II,JST,KST,LST = 11  1  1  1 NREC =        13 INTLOC =12865
 II,JST,KST,LST = 12  1  1  1 NREC =        15 INTLOC = 4582
 II,JST,KST,LST = 13  1  1  1 NREC =        16 INTLOC =13020
 II,JST,KST,LST = 14  1  1  1 NREC =        21 INTLOC =12522
 II,JST,KST,LST = 15  1  1  1 NREC =        25 INTLOC = 5274
 II,JST,KST,LST = 16  1  1  1 NREC =        29 INTLOC = 1273
 II,JST,KST,LST = 17  1  1  1 NREC =        41 INTLOC = 7953
 II,JST,KST,LST = 18  1  1  1 NREC =        46 INTLOC = 2383
 II,JST,KST,LST = 19  1  1  1 NREC =        51 INTLOC =  799
 TOTAL NUMBER OF NONZERO TWO-ELECTRON INTEGRALS =              989745
         66 INTEGRAL RECORDS WERE STORED ON DISK FILE  8.
  ...... END OF TWO-ELECTRON INTEGRALS .....
 STEP CPU TIME =     0.09 TOTAL CPU TIME =        0.1 (    0.0 MIN)
 TOTAL WALL CLOCK TIME=        0.1 SECONDS, CPU UTILIZATION IS  90.91%

          ---------------------------
                  UHF SCF CALCULATION
          ---------------------------

     NUCLEAR ENERGY =        39.1229446530
     MAXIT =200     NPUNCH=  2     MULT=  1
     EXTRAP=T  DAMP=F  SHIFT=F  RSTRCT=F  DIIS=F  SOSCF=T
     DENSITY MATRIX CONV=  1.00E-05
     SOSCF WILL OPTIMIZE     432 ALPHA AND     432 BETA ROTATION ANGLES.
     SOGTOL= 2.500E-01
     MEMORY REQUIRED FOR UHF/ROHF ITERS=     69450 WORDS.

 ITER EX      TOTAL ENERGY        E CHANGE  DENSITY CHANGE    ORB. GRAD 
   1  0     -113.2949502777  -113.2949502777   0.541584298   0.000000000
          ---------------START SECOND ORDER SCF---------------
   2  1     -113.9700174145    -0.6750671368   0.296504266   0.037849901
   3  2     -114.0027436010    -0.0327261865   0.056770642   0.021353168
   4  3     -114.0110011674    -0.0082575664   0.031646906   0.006787686
   5  4     -114.0121909931    -0.0011898257   0.029453420   0.004173444
   6  5     -114.0126355692    -0.0004445760   0.014024192   0.001796210
   7  6     -114.0127267176    -0.0000911485   0.008699177   0.000798517
   8  7     -114.0127576935    -0.0000309759   0.003633603   0.000419282
   9  8     -114.0127631551    -0.0000054616   0.001260445   0.000164366
  10  9     -114.0127640772    -0.0000009221   0.000460736   0.000064050
  11 10     -114.0127642734    -0.0000001962   0.000088105   0.000037789
  12 11     -114.0127642970    -0.0000000236   0.000051954   0.000010377
  13 12     -114.0127642992    -0.0000000022   0.000017304   0.000002300
  14 13     -114.0127642994    -0.0000000002   0.000007336   0.000000575
  15 14     -114.0127642994    -0.0000000000   0.000002042   0.000000205

          -----------------
          DENSITY CONVERGED
          -----------------
     TIME TO FORM FOCK OPERATORS=       0.3 SECONDS (       0.0 SEC/ITER)
     TIME TO SOLVE SCF EQUATIONS=       0.0 SECONDS (       0.0 SEC/ITER)

 FINAL UHF ENERGY IS     -114.0127642994 AFTER  15 ITERATIONS

          --------------------
          SPIN SZ   =    0.000
          S-SQUARED =   -0.000
          --------------------

  ----- ALPHA SET ----- 

          ------------
          EIGENVECTORS
          ------------

                      1          2          3          4          5
                  -20.3061   -11.1202    -1.3039    -0.5328    -0.4891
                     A          A          A          A          A   
    1  C  1  S    0.000074   0.995639  -0.128657   0.137500  -0.014284
    2  C  1  S   -0.000054   0.008501   0.241006  -0.260566   0.017547
    3  C  1  X   -0.000270   0.001518   0.251387  -0.011656   0.020662
    4  C  1  Y   -0.000010  -0.000506   0.000705   0.020262   0.210235
    5  C  1  Z   -0.000055   0.000322   0.050972   0.059066   0.249594
    6  C  1  S    0.003156   0.001027   0.082590  -0.211337  -0.005254
    7  C  1  X    0.001079   0.000094  -0.000032   0.066387  -0.023297
    8  C  1  Y   -0.000073  -0.000017  -0.000192  -0.001615   0.063891
    9  C  1  Z    0.000103   0.000175  -0.006567   0.024894   0.068495
   10  C  1 XX   -0.000628   0.005672   0.028716  -0.017390  -0.000179
   11  C  1 YY    0.000189   0.004639   0.000011  -0.009612   0.001295
   12  C  1 ZZ    0.000158   0.004655   0.001145  -0.010073   0.005987
   13  C  1 XY    0.000003   0.000096   0.000123   0.001255   0.012371
   14  C  1 XZ   -0.000182   0.000191   0.006713  -0.000262   0.013043
   15  C  1 YZ   -0.000022  -0.000065  -0.000039  -0.001407   0.002313
   16  C  1 XX   -0.000277  -0.000519   0.035160  -0.009684  -0.008458
   17  C  1 YY   -0.000294  -0.000369  -0.005091  -0.010547  -0.002741
   18  C  1 ZZ   -0.000298  -0.000298  -0.002466  -0.018395   0.009255
   19  C  1 XY   -0.000012  -0.000321   0.000261   0.000745   0.020444
   20  C  1 XZ   -0.000012   0.000142   0.008631  -0.008150   0.020381
   21  C  1 YZ    0.000006   0.000099  -0.001669  -0.008900   0.005766
   22  O  2  S    0.997696  -0.001152  -0.204629  -0.108801   0.029678
   23  O  2  S    0.040566   0.001207   0.419798   0.243312  -0.064385
   24  O  2  X   -0.002002  -0.001864  -0.188655   0.363320  -0.199118
   25  O  2  Y    0.000059   0.000107   0.003784   0.028942   0.297076
   26  O  2  Z   -0.000540  -0.000365  -0.033411   0.135705   0.301814
   27  O  2  S   -0.048173  -0.002271   0.299879   0.427587  -0.119702
   28  O  2  X    0.001446   0.001726   0.012089   0.183292  -0.111666
   29  O  2  Y    0.000002   0.000334   0.004445   0.022634   0.157929
   30  O  2  Z    0.000390   0.000182   0.009367   0.079742   0.161980
   31  O  2 XX    0.000877   0.001333   0.013843  -0.017918   0.012426
   32  O  2 YY   -0.000144  -0.000224  -0.017101   0.000897  -0.000427
   33  O  2 ZZ   -0.000081  -0.000157  -0.015660  -0.001533  -0.007084
   34  O  2 XY   -0.000054  -0.000003  -0.000426  -0.001155  -0.015016
   35  O  2 XZ    0.000210   0.000362   0.007274  -0.008392  -0.013924
   36  O  2 YZ    0.000166  -0.000035  -0.000074   0.000176  -0.002745
   37  O  2 XX    0.012835  -0.000854  -0.029960  -0.009194   0.007656
   38  O  2 YY    0.013219   0.000479  -0.009642  -0.007373   0.008381
   39  O  2 ZZ    0.013201   0.000442  -0.011109  -0.007771   0.002216
   40  O  2 XY   -0.000008  -0.000262  -0.001264  -0.002376  -0.005838
   41  O  2 XZ   -0.000106  -0.000214  -0.007049  -0.005967  -0.005174
   42  O  2 YZ    0.000004  -0.000122  -0.001090   0.001983   0.003599
   43  H  3  S    0.000009   0.000117   0.004345  -0.100859  -0.049571
   44  H  3  S    0.000003   0.000017  -0.009475  -0.070284  -0.037826
   45  H  3  X   -0.000014  -0.000048   0.002877  -0.007627  -0.005127
   46  H  3  Y   -0.000002  -0.000005  -0.000123   0.000769   0.003593
   47  H  3  Z    0.000028  -0.000006   0.000703  -0.006216  -0.001983
   48  H  4  S   -0.000048   0.000100   0.022672  -0.034711   0.110481
   49  H  4  S    0.000036  -0.000078   0.000073  -0.022840   0.098863
   50  H  4  X    0.000015  -0.000003   0.000883   0.001638   0.001233
   51  H  4  Y   -0.000014   0.000041  -0.002586   0.002995  -0.005292
   52  H  4  Z   -0.000019   0.000051  -0.002412   0.003048  -0.004654
   53  H  5  S   -0.000053   0.000092   0.013881  -0.079448  -0.089842
   54  H  5  S   -0.000098   0.000073   0.000231  -0.061602  -0.084080
   55  H  5  X   -0.000005   0.000026   0.000387   0.002253   0.002899
   56  H  5  Y   -0.000023  -0.000074   0.001915  -0.005087  -0.004401
   57  H  5  Z   -0.000026  -0.000048   0.001964  -0.003834  -0.002701

                      6          7          8          9         10
                   -0.4231    -0.3884    -0.0707     0.0285     0.3535
                     A          A          A          A          A   
    1  C  1  S    0.038467  -0.029100  -0.031332   0.028661  -0.116665
    2  C  1  S   -0.048793   0.039516   0.019132  -0.035749   0.041415
    3  C  1  X    0.341841  -0.209382  -0.105451   0.035247  -0.246663
    4  C  1  Y   -0.150926  -0.225972   0.079958  -0.113827  -0.069238
    5  C  1  Z    0.134012   0.192074   0.093628   0.015962   0.066519
    6  C  1  S   -0.185422   0.106315   0.181335  -0.173653   1.075140
    7  C  1  X    0.062762  -0.074104  -0.111198   0.061927  -0.436627
    8  C  1  Y   -0.059528  -0.095592   0.090404  -0.159566  -0.135367
    9  C  1  Z    0.025198   0.100521   0.095785   0.015281   0.083271
   10  C  1 XX    0.006850  -0.008358   0.003451  -0.016886   0.023080
   11  C  1 YY   -0.007797   0.006283   0.007117   0.004161   0.025217
   12  C  1 ZZ   -0.008770   0.010957   0.000740  -0.001392   0.018545
   13  C  1 XY   -0.009544  -0.015344  -0.012161   0.005646   0.009320
   14  C  1 XZ    0.004218   0.013563  -0.016582  -0.008101  -0.009428
   15  C  1 YZ   -0.004338  -0.002057  -0.000608   0.011646  -0.005242
   16  C  1 XX   -0.004721  -0.016855  -0.020078  -0.033688  -0.039421
   17  C  1 YY   -0.012693   0.008095   0.001677   0.032180  -0.007627
   18  C  1 ZZ   -0.025042   0.029825  -0.006012   0.012728   0.001439
   19  C  1 XY   -0.020007  -0.032437  -0.023501   0.006229  -0.000726
   20  C  1 XZ   -0.011941   0.042986  -0.039909  -0.028012   0.016882
   21  C  1 YZ   -0.014224  -0.000126   0.000791   0.036681   0.005515
   22  O  2  S    0.020174  -0.001984   0.015834   0.025961   0.005656
   23  O  2  S   -0.043251   0.004497  -0.040994  -0.071057   0.004138
   24  O  2  X   -0.341713   0.064076   0.111165   0.051388   0.079131
   25  O  2  Y   -0.212893  -0.315440  -0.280258   0.144529   0.172005
   26  O  2  Z   -0.025309   0.364608  -0.315366  -0.015938  -0.044180
   27  O  2  S   -0.157773   0.057691  -0.018312  -0.106903   0.074229
   28  O  2  X   -0.163067   0.019127   0.074157   0.038786   0.068360
   29  O  2  Y   -0.119014  -0.190669  -0.268777   0.172217   0.246573
   30  O  2  Z    0.011042   0.200191  -0.306126  -0.018976  -0.088708
   31  O  2 XX    0.021096  -0.001054  -0.005083  -0.003090  -0.001500
   32  O  2 YY   -0.007220   0.003243   0.003038   0.004855  -0.000144
   33  O  2 ZZ   -0.007336  -0.004293   0.004937   0.004285  -0.000816
   34  O  2 XY    0.011538   0.018509   0.004399  -0.000711   0.000861
   35  O  2 XZ    0.003056  -0.020972   0.003499  -0.000655  -0.001933
   36  O  2 YZ    0.001424   0.004618   0.002778   0.004684  -0.004028
   37  O  2 XX   -0.005007   0.005365  -0.000125  -0.006430  -0.000782
   38  O  2 YY    0.001010  -0.005073  -0.002817  -0.004242   0.024103
   39  O  2 ZZ    0.002728   0.000302  -0.002618  -0.006624   0.023957
   40  O  2 XY    0.000872   0.006547   0.005808  -0.009278  -0.017354
   41  O  2 XZ   -0.012298   0.002661   0.004683  -0.002657   0.010258
   42  O  2 YZ    0.000649  -0.001287  -0.004948  -0.003471  -0.003673
   43  H  3  S   -0.152183   0.039645  -0.096713  -0.172268  -0.123268
   44  H  3  S   -0.166112   0.045974  -0.207461  -0.513804  -0.845998
   45  H  3  X   -0.006121  -0.001981  -0.004121   0.000214  -0.004320
   46  H  3  Y   -0.001867  -0.003145   0.005447  -0.010004  -0.002405
   47  H  3  Z   -0.007501   0.001275   0.002774  -0.007142   0.004752
   48  H  4  S   -0.076593   0.030012   0.204569   0.127465  -0.122820
   49  H  4  S   -0.103415   0.042463   0.449403   0.419693  -0.711622
   50  H  4  X    0.001498  -0.002238  -0.006413   0.002198  -0.002903
   51  H  4  Y    0.001808  -0.003501  -0.007505  -0.000728  -0.000548
   52  H  4  Z    0.004180   0.001128  -0.007886   0.000378   0.000817
   53  H  5  S   -0.054071   0.043492  -0.132372   0.231455  -0.025637
   54  H  5  S   -0.047017   0.052028  -0.252733   0.730301  -0.139376
   55  H  5  X    0.002789  -0.002113   0.004812  -0.001863  -0.000493
   56  H  5  Y   -0.004054   0.000652  -0.007953   0.005865  -0.002532
   57  H  5  Z   -0.001182   0.003151  -0.004574   0.005846   0.002277

                     11         12         13         14         15
                    0.4782     0.5283     0.6685     0.8751     0.9612
                     A          A          A          A          A   
    1  C  1  S    0.042715   0.012921  -0.015545  -0.010825  -0.045931
    2  C  1  S   -0.059698  -0.023420  -0.005251  -0.297019  -0.610033
    3  C  1  X    0.049331  -0.027644   0.084005   0.267765   0.256737
    4  C  1  Y   -0.237135   0.352701  -0.093973   0.511770  -0.299196
    5  C  1  Z    0.271394   0.315352   0.091876  -0.501479   0.079525
    6  C  1  S   -0.825687  -0.016122   3.754347   1.207295   1.466971
    7  C  1  X   -0.246915   0.116245   3.025973  -0.008966  -0.719967
    8  C  1  Y   -0.589906   1.161665  -0.063439  -0.826636   0.946444
    9  C  1  Z    0.732881   1.176791   0.853203   0.957354  -0.134169
   10  C  1 XX    0.004872  -0.002986  -0.043504   0.010866   0.027753
   11  C  1 YY   -0.014609  -0.003385   0.007500   0.002519   0.015028
   12  C  1 ZZ   -0.014724  -0.002342   0.010519  -0.002595   0.013692
   13  C  1 XY    0.009368  -0.006710   0.001699   0.015164  -0.013170
   14  C  1 XZ   -0.005056  -0.004115  -0.007744  -0.015956   0.003862
   15  C  1 YZ    0.002274  -0.000614  -0.009534   0.004011   0.001506
   16  C  1 XX   -0.046222  -0.016045   0.118318  -0.224925  -0.355191
   17  C  1 YY   -0.004809  -0.001082  -0.179067  -0.187929  -0.261367
   18  C  1 ZZ   -0.003771  -0.008627  -0.177523  -0.093511  -0.435828
   19  C  1 XY   -0.023016   0.061209   0.010087  -0.186645   0.197690
   20  C  1 XZ    0.018207   0.036064   0.020197   0.223106  -0.055973
   21  C  1 YZ   -0.018527   0.011406  -0.015865  -0.149260  -0.301950
   22  O  2  S   -0.014438  -0.003700   0.047961   0.006566  -0.006222
   23  O  2  S    0.059457   0.002059  -0.346129  -0.047530  -0.013708
   24  O  2  X   -0.000033   0.021720  -0.008996  -0.068996  -0.138838
   25  O  2  Y    0.190340  -0.105663   0.038277   0.004679   0.039254
   26  O  2  Z   -0.246713  -0.073092  -0.042962   0.005698   0.114095
   27  O  2  S    0.335222  -0.137639  -3.094543  -0.385662   0.289379
   28  O  2  X   -0.055643   0.100435   1.180581   0.342245   0.234527
   29  O  2  Y    0.399075  -0.394706   0.099458   0.252955  -0.345923
   30  O  2  Z   -0.540359  -0.327985   0.197985  -0.250132   0.010729
   31  O  2 XX    0.003951   0.005053   0.010009   0.006901   0.014372
   32  O  2 YY   -0.003018  -0.000467   0.020119   0.001135  -0.002079
   33  O  2 ZZ   -0.006693  -0.004400   0.018549   0.001162  -0.003562
   34  O  2 XY    0.007107  -0.012625   0.003297  -0.002420  -0.003950
   35  O  2 XZ   -0.007609  -0.011736  -0.004649   0.002500   0.000067
   36  O  2 YZ    0.001723  -0.005046  -0.003838  -0.000208  -0.000230
   37  O  2 XX    0.013046  -0.022868  -0.411304  -0.299028  -0.300627
   38  O  2 YY    0.023021  -0.016268  -0.269935  -0.022790   0.026712
   39  O  2 ZZ    0.050127   0.005001  -0.270129   0.109146  -0.016189
   40  O  2 XY   -0.039563   0.038496   0.011917  -0.302835   0.330472
   41  O  2 XZ    0.055647   0.032386  -0.068000   0.300547  -0.007038
   42  O  2 YZ   -0.008263   0.020623  -0.026221  -0.113581  -0.091959
   43  H  3  S    0.041978  -0.055496  -0.031150  -0.010564  -0.203789
   44  H  3  S    0.852623   0.273167   1.046742   0.053460  -0.512261
   45  H  3  X   -0.011879  -0.005287   0.006813  -0.008532  -0.013354
   46  H  3  Y   -0.008792   0.007765   0.007545   0.003465   0.025367
   47  H  3  Z    0.001469  -0.000897  -0.006097  -0.001587   0.007302
   48  H  4  S   -0.001085   0.005287  -0.018378  -0.109186  -0.457688
   49  H  4  S    0.155068  -1.176193  -0.653746   0.006910   0.226513
   50  H  4  X    0.001144  -0.006874   0.004788   0.004208  -0.000554
   51  H  4  Y   -0.003297   0.002278  -0.003688  -0.004945  -0.000674
   52  H  4  Z    0.004414   0.000604   0.002904  -0.005803  -0.018615
   53  H  5  S   -0.041517   0.015178  -0.060314  -0.081704  -0.129800
   54  H  5  S   -0.083604   1.272441  -0.653411   0.003790   0.587463
   55  H  5  X    0.001041   0.008710  -0.008363   0.001847   0.020650
   56  H  5  Y   -0.002667   0.002747  -0.000818   0.005515   0.008411
   57  H  5  Z    0.003316   0.004894  -0.003110   0.000118   0.033281

                     16         17         18         19         20
                    1.0416     1.1062     1.1329     1.1739     1.2200
                     A          A          A          A          A   
    1  C  1  S   -0.036572  -0.015668   0.022593   0.044208   0.001751
    2  C  1  S   -0.257047  -1.437726  -0.262089   0.230625  -0.732993
    3  C  1  X    0.076567   0.468885   0.153858   0.020045  -0.519794
    4  C  1  Y   -0.331272   0.080492  -0.305467  -0.326773  -0.022196
    5  C  1  Z   -0.482443   0.304901  -0.179930  -0.295080  -0.117135
    6  C  1  S   -0.326330   3.060683   1.030085   0.658344  -0.937530
    7  C  1  X   -0.237824  -0.803329  -0.064238   0.554286  -0.295200
    8  C  1  Y    1.155651  -0.358747   1.120500   0.993169  -0.138915
    9  C  1  Z    1.277988  -0.851032   1.079061   1.372315  -0.204418
   10  C  1 XX    0.034250   0.093584   0.013122  -0.027897   0.038293
   11  C  1 YY    0.028925   0.082391   0.011169  -0.026353   0.063325
   12  C  1 ZZ    0.029649   0.077248   0.003343  -0.034958   0.063076
   13  C  1 XY   -0.011839   0.001359  -0.009663  -0.008686   0.000674
   14  C  1 XZ   -0.007370   0.000067  -0.013747  -0.013651  -0.004077
   15  C  1 YZ   -0.007120  -0.011184  -0.003239   0.000680   0.001279
   16  C  1 XX   -0.368005  -0.587145   0.013057   0.312830  -0.126064
   17  C  1 YY    0.297401  -0.055524  -0.584173   0.108920   0.048650
   18  C  1 ZZ    0.087968  -0.172018   0.488743  -0.310414   0.045929
   19  C  1 XY    0.148215  -0.036015   0.091700   0.065704   0.025077
   20  C  1 XZ   -0.153838   0.064073   0.275756   0.566935  -0.037183
   21  C  1 YZ    0.252482   0.289614   0.081624   0.047169  -0.210389
   22  O  2  S    0.006134   0.000459  -0.004204   0.015918  -0.093087
   23  O  2  S   -0.001534  -0.014676   0.009826   0.027001   0.051470
   24  O  2  X    0.155056  -0.036574  -0.059349  -0.132032   0.354511
   25  O  2  Y    0.021599  -0.010770   0.024401  -0.022519  -0.025465
   26  O  2  Z    0.052514   0.066927   0.008737  -0.071775   0.050648
   27  O  2  S    0.707754   0.329674  -0.503302  -1.351935   1.619295
   28  O  2  X   -0.362167   0.214023   0.328521   0.497170  -1.451963
   29  O  2  Y   -0.327277   0.055320  -0.238377  -0.081602   0.108766
   30  O  2  Z   -0.178722  -0.004435  -0.423822  -0.342115  -0.205674
   31  O  2 XX   -0.003494   0.020309   0.005149  -0.005293  -0.015512
   32  O  2 YY    0.001881  -0.004257  -0.004966  -0.000051   0.016557
   33  O  2 ZZ    0.000568  -0.004135   0.002484  -0.002129   0.016453
   34  O  2 XY    0.001046  -0.000329   0.002296   0.007829   0.004780
   35  O  2 XZ    0.003858   0.002166  -0.001121   0.002421  -0.004147
   36  O  2 YZ   -0.003386  -0.000011  -0.000814   0.000705  -0.001591
   37  O  2 XX   -0.046035  -0.346527  -0.151037  -0.025908  -0.427217
   38  O  2 YY   -0.045943   0.094024  -0.229447   0.428262  -0.046947
   39  O  2 ZZ    0.042851  -0.099733   0.348723  -0.032873  -0.097249
   40  O  2 XY    0.230734  -0.085924   0.215733   0.110747  -0.056094
   41  O  2 XZ    0.269181  -0.171980   0.110137   0.199353  -0.154521
   42  O  2 YZ    0.107879   0.000270   0.070561   0.129296  -0.077676
   43  H  3  S   -0.488818   0.219120   0.367386   0.429846   0.035971
   44  H  3  S    0.990708  -0.883137  -0.641321  -0.337270  -0.080695
   45  H  3  X    0.026938  -0.037905  -0.008009  -0.037281   0.009551
   46  H  3  Y    0.001929  -0.003002   0.002106   0.002825   0.006503
   47  H  3  Z    0.020154  -0.034217  -0.035081   0.011246   0.003976
   48  H  4  S    0.239306   0.278372   0.123697   0.303159   0.129793
   49  H  4  S   -1.218398  -0.557728  -0.877003  -0.986488   0.046229
   50  H  4  X   -0.001926   0.002853  -0.008572   0.025713   0.016313
   51  H  4  Y    0.046415   0.028147  -0.016837   0.051677   0.002195
   52  H  4  Z    0.039418   0.003364   0.068560  -0.007516   0.003812
   53  H  5  S    0.210428   0.317186  -0.064673  -0.326711  -0.200003
   54  H  5  S    0.089316  -1.145523   0.752407   1.062291   0.222515
   55  H  5  X    0.024653   0.000256   0.013553  -0.005068   0.002289
   56  H  5  Y    0.007089  -0.052706   0.052124   0.003411   0.000632
   57  H  5  Z    0.021890  -0.038071  -0.018969   0.052052   0.002483

                     21         22         23         24         25
                    1.3271     1.3832     1.4266     1.4295     1.4907
                     A          A          A          A          A   
    1  C  1  S    0.030808   0.016515   0.011622   0.049409  -0.026459
    2  C  1  S   -0.076553   0.002270  -0.273548   0.229747  -0.233524
    3  C  1  X   -0.223419  -0.043721   0.163607  -0.185994   0.131644
    4  C  1  Y    0.065825   0.219367  -0.101703  -0.052411   0.017833
    5  C  1  Z    0.048896   0.031286   0.211269  -0.006695   0.183975
    6  C  1  S    1.498418  -0.091572   0.452439  -0.044688   0.115002
    7  C  1  X    0.624849   0.172438  -0.281495   0.839241  -0.053931
    8  C  1  Y   -0.076366  -0.736164  -0.227654   1.055376   0.238660
    9  C  1  Z   -0.321291   0.207999  -1.332546   1.030382  -0.113416
   10  C  1 XX   -0.015192  -0.000632   0.030838  -0.015075   0.012818
   11  C  1 YY   -0.033467   0.005711   0.019815  -0.015063   0.046360
   12  C  1 ZZ   -0.026505   0.000757   0.021993  -0.025889   0.033082
   13  C  1 XY    0.000494  -0.001835  -0.002707   0.002956   0.004325
   14  C  1 XZ    0.010061  -0.006809   0.000626  -0.013253  -0.014841
   15  C  1 YZ    0.005374  -0.001734  -0.004483  -0.014763   0.017973
   16  C  1 XX    0.437850   0.008945   0.214676   0.273561  -0.151831
   17  C  1 YY   -0.440678   0.050678   0.006808   0.002142   0.042383
   18  C  1 ZZ   -0.594309   0.102998  -0.150869   0.147305   0.228718
   19  C  1 XY   -0.062158  -0.799167   0.161229   0.250517  -0.128577
   20  C  1 XZ   -0.262213   0.073843  -0.592549   0.264058  -0.141990
   21  C  1 YZ    0.290027  -0.078657  -0.109961   0.369576  -0.294366
   22  O  2  S    0.008526  -0.004366  -0.000501  -0.043415  -0.014893
   23  O  2  S    0.100094  -0.006993  -0.001200   0.012187  -0.098031
   24  O  2  X   -0.260821   0.071437   0.088146   0.059404   0.256514
   25  O  2  Y    0.071724  -0.456556  -0.253611   0.382972   0.470282
   26  O  2  Z   -0.081166  -0.142931  -0.616706  -0.287668  -0.187963
   27  O  2  S   -1.242863  -0.063183   0.155473  -0.664194   0.390238
   28  O  2  X    0.210293  -0.084548  -0.156440   0.098589  -0.210047
   29  O  2  Y   -0.107383   1.311012   0.317262  -1.030876  -0.474787
   30  O  2  Z    0.566475  -0.024547   1.618703  -0.154165   0.239120
   31  O  2 XX   -0.014255  -0.000286  -0.000851  -0.002333   0.012387
   32  O  2 YY    0.001659   0.001310  -0.004550   0.008079   0.000582
   33  O  2 ZZ    0.000408   0.001833   0.005063   0.006958   0.004562
   34  O  2 XY   -0.006552   0.012402   0.009394  -0.019356  -0.007482
   35  O  2 XZ   -0.000396  -0.004599   0.024127  -0.008043   0.003329
   36  O  2 YZ    0.003604   0.003543  -0.000744  -0.001498  -0.003871
   37  O  2 XX   -0.289282  -0.065816   0.045694  -0.185316  -0.108420
   38  O  2 YY    0.288386   0.073688  -0.054601   0.005548  -0.038340
   39  O  2 ZZ    0.461906  -0.059074  -0.027405  -0.243640  -0.370676
   40  O  2 XY   -0.028297   0.158456  -0.132807   0.327893   0.005354
   41  O  2 XZ   -0.164226   0.117026  -0.059742   0.288604   0.237182
   42  O  2 YZ    0.298645  -0.024432  -0.142973  -0.487965   0.664087
   43  H  3  S   -0.252689   0.154675   0.189338   0.307942   0.345301
   44  H  3  S    0.291015   0.060564  -0.662535   0.199096  -0.361807
   45  H  3  X   -0.027880  -0.002313   0.023908   0.006328   0.000391
   46  H  3  Y    0.006469   0.029645  -0.029155  -0.026856   0.087893
   47  H  3  Z    0.059223  -0.009391   0.002009  -0.011642  -0.044891
   48  H  4  S   -0.142739  -0.211314   0.370101  -0.398430  -0.270301
   49  H  4  S   -0.075632   0.116765  -0.146298  -0.054460   0.136772
   50  H  4  X    0.032652   0.008231   0.032649  -0.057891   0.004355
   51  H  4  Y   -0.017636  -0.018811  -0.012869   0.029231  -0.033605
   52  H  4  Z   -0.001523  -0.016387  -0.012557   0.026208  -0.014680
   53  H  5  S    0.163411   0.328615  -0.184944   0.612582  -0.124225
   54  H  5  S   -0.543846  -0.311528   0.054751  -0.034259   0.162050
   55  H  5  X    0.053334   0.003357  -0.070090  -0.029331   0.095389
   56  H  5  Y   -0.004353  -0.020356  -0.020321   0.001911   0.014372
   57  H  5  Z    0.007199  -0.018958  -0.042468  -0.013815   0.033102

                     26         27         28         29         30
                    1.6022     1.6826     1.6850     1.7758     1.9723
                     A          A          A          A          A   
    1  C  1  S   -0.000870  -0.011618   0.006550  -0.017419  -0.081927
    2  C  1  S    0.050469  -0.257725   0.163046   0.021031   0.193648
    3  C  1  X   -0.029207   0.025513   0.002175  -0.012053   0.290289
    4  C  1  Y   -0.035674   0.024023  -0.165544  -0.070980   0.326803
    5  C  1  Z    0.029304  -0.174296  -0.178263   0.334438   0.009235
    6  C  1  S   -0.057159   4.204095  -0.178135   1.030568   2.109585
    7  C  1  X   -0.080152   2.457631  -0.146158   1.383430  -0.147274
    8  C  1  Y   -0.003623  -0.122866   0.990340   0.401294   0.103061
    9  C  1  Z    0.088143   0.546274   1.018371   1.385691  -0.564992
   10  C  1 XX   -0.007124   0.041738  -0.019392  -0.020332  -0.041461
   11  C  1 YY    0.004881  -0.003198  -0.017720   0.027806  -0.023540
   12  C  1 ZZ   -0.016615   0.000943  -0.015782   0.012178  -0.013833
   13  C  1 XY   -0.003907  -0.001380  -0.006561  -0.005071  -0.010158
   14  C  1 XZ    0.006315   0.016318  -0.001794  -0.034274   0.012262
   15  C  1 YZ    0.001213  -0.000465   0.011062   0.007912   0.040813
   16  C  1 XX    0.026187   0.330809  -0.353872   0.267600  -0.892172
   17  C  1 YY   -0.683698  -0.375128   0.081833   0.279092  -0.343430
   18  C  1 ZZ    0.562147  -0.323150   0.115572  -0.227103  -0.345622
   19  C  1 XY    0.204497  -0.009894   0.666781   0.309063   0.213360
   20  C  1 XZ   -0.334950   0.097361   0.464576   0.220358  -0.070466
   21  C  1 YZ    0.077651  -0.007102  -0.156838   0.290930   0.797603
   22  O  2  S    0.007129  -0.229167   0.018042  -0.058205  -0.026901
   23  O  2  S    0.004311  -0.114120  -0.016377  -0.120117  -0.133219
   24  O  2  X   -0.070082  -0.092979   0.046919   0.171437   0.120653
   25  O  2  Y   -0.251058  -0.059532  -0.359001  -0.294962  -0.044139
   26  O  2  Z    0.248404  -0.039945  -0.261892   0.413962  -0.202667
   27  O  2  S    0.068728  -1.601878   0.106173  -1.160786   0.461401
   28  O  2  X    0.027507   1.282205   0.032134   0.384767   0.396308
   29  O  2  Y    0.131282   0.138365  -0.331252  -0.000357  -0.360883
   30  O  2  Z   -0.195291   0.387520  -0.381756  -0.943996   0.560099
   31  O  2 XX   -0.000558   0.041817   0.001285   0.023107   0.041763
   32  O  2 YY   -0.008108   0.023090   0.002156   0.009275  -0.000932
   33  O  2 ZZ    0.006896   0.024283  -0.004911   0.005580  -0.001035
   34  O  2 XY    0.000209   0.002040  -0.016968  -0.006017  -0.010171
   35  O  2 XZ   -0.003918   0.009072  -0.016374  -0.001617   0.008194
   36  O  2 YZ    0.001795   0.000849  -0.000491   0.006811   0.027755
   37  O  2 XX   -0.092587  -0.970694  -0.087337  -0.396553  -0.781953
   38  O  2 YY    0.860997  -1.299419   0.047279  -0.758903  -0.197619
   39  O  2 ZZ   -0.685133  -1.463962   0.172290   0.040144  -0.310650
   40  O  2 XY   -0.089110  -0.044616  -0.086473  -0.014712   0.497591
   41  O  2 XZ    0.257841  -0.114987  -0.050436   0.770690  -0.356941
   42  O  2 YZ   -0.004118   0.222110   0.474999   0.023715  -0.136101
   43  H  3  S   -0.036275  -0.280575   0.001317   0.552029  -0.120147
   44  H  3  S    0.051229   0.560495   0.116449   0.214990  -0.323644
   45  H  3  X    0.034516   0.067426   0.038499  -0.122439   0.135544
   46  H  3  Y   -0.051321   0.019780  -0.061340  -0.073432  -0.183851
   47  H  3  Z   -0.039868   0.007949   0.000695  -0.041548  -0.052000
   48  H  4  S   -0.061110   0.133462  -0.638547  -0.367777  -0.413589
   49  H  4  S    0.007001  -0.448078  -0.130194  -0.154957   0.092769
   50  H  4  X    0.003569  -0.022078   0.132509  -0.055206  -0.061424
   51  H  4  Y   -0.004229   0.024268  -0.025013   0.033652  -0.082830
   52  H  4  Z   -0.002641   0.036005  -0.007992  -0.058741  -0.089172
   53  H  5  S   -0.009513   0.100283   0.491312  -0.017830  -0.797621
   54  H  5  S    0.003120  -0.497139   0.166074   0.176113   0.156152
   55  H  5  X    0.000996  -0.051031  -0.079634   0.034201  -0.136961
   56  H  5  Y    0.061270  -0.016273   0.032907   0.001673   0.105683
   57  H  5  Z   -0.046735  -0.034991   0.014235   0.044966   0.034099

                     31         32         33         34         35
                    2.1159     2.1641     2.3288     2.4217     2.6343
                     A          A          A          A          A   
    1  C  1  S   -0.059003   0.059503   0.183985  -0.239826   0.015607
    2  C  1  S    0.377841   0.523365   0.226961   1.328472  -0.330825
    3  C  1  X   -0.019661  -0.625226  -0.358836   0.355739  -0.277655
    4  C  1  Y   -1.010843   0.277455  -0.140824   0.164659   0.131224
    5  C  1  Z    0.321649   0.627573  -0.756103  -0.209261  -0.032855
    6  C  1  S    1.133618  -0.719543  -1.718684   3.077917  -0.553434
    7  C  1  X   -0.333057  -0.994059  -0.387956  -0.688922  -0.368821
    8  C  1  Y   -1.480518   0.513595  -0.354096   0.226360   0.243468
    9  C  1  Z   -0.209152   0.888738  -0.914202  -0.661624  -0.347842
   10  C  1 XX   -0.029345   0.017235   0.028302  -0.099158   0.030790
   11  C  1 YY   -0.049649  -0.103664  -0.043214  -0.103571   0.002786
   12  C  1 ZZ   -0.045425  -0.101648  -0.070740  -0.114122   0.017663
   13  C  1 XY    0.013832  -0.003908   0.000071   0.006268   0.034645
   14  C  1 XZ    0.009895   0.018901  -0.007069  -0.024142   0.015779
   15  C  1 YZ    0.018898  -0.020057   0.003084  -0.027822   0.046014
   16  C  1 XX   -0.930045  -1.407542   0.003640  -1.655201  -0.277447
   17  C  1 YY   -0.302446   0.200423   0.864328  -1.215849   0.125280
   18  C  1 ZZ   -0.170571   0.422598   0.180939  -1.358792   0.335746
   19  C  1 XY   -1.540068   0.436297  -0.263658   0.322383   0.485009
   20  C  1 XZ    0.237634   0.725604  -1.337191  -0.585528   0.004826
   21  C  1 YZ   -0.022316  -0.188762  -0.053322  -0.016978   0.296525
   22  O  2  S   -0.023731  -0.028495  -0.040648   0.001034  -0.021550
   23  O  2  S   -0.042083   0.119920   0.074362  -0.068474   0.052387
   24  O  2  X   -0.058055  -0.539293  -0.570542   0.125960  -0.221362
   25  O  2  Y    0.068242   0.004034   0.021288  -0.018562  -0.164151
   26  O  2  Z   -0.078286  -0.144534   0.058514   0.058656  -0.123134
   27  O  2  S    0.751610   2.043347   1.738788   0.959363   0.972808
   28  O  2  X    0.414867   0.518745  -0.056387   0.521812  -0.144056
   29  O  2  Y    1.959751  -0.541846   0.325021  -0.349131  -0.332746
   30  O  2  Z   -0.251056  -1.323601   1.223053   0.745164   0.065293
   31  O  2 XX    0.027111  -0.031752  -0.075103   0.083584  -0.032094
   32  O  2 YY   -0.001824   0.017757   0.031866  -0.035198   0.020917
   33  O  2 ZZ   -0.004876   0.009953   0.045688  -0.017548   0.004242
   34  O  2 XY    0.030644   0.001368   0.005219  -0.002948  -0.043422
   35  O  2 XZ   -0.008264  -0.029091   0.013139   0.044545  -0.016677
   36  O  2 YZ    0.015366  -0.006397   0.005896  -0.009261  -0.013053
   37  O  2 XX   -0.775593  -1.045745  -0.027541  -1.124965  -0.002132
   38  O  2 YY   -0.123219  -0.067718  -0.293703   0.102365  -0.064862
   39  O  2 ZZ   -0.024587   0.373188  -0.469183  -0.086767  -0.226802
   40  O  2 XY   -1.633006   0.449183  -0.267393   0.284026   0.288149
   41  O  2 XZ    0.214802   0.986882  -1.030673  -0.737296   0.051635
   42  O  2 YZ   -0.459237   0.275623  -0.025619   0.093265  -0.098083
   43  H  3  S   -0.123220  -0.088269   0.526417   0.421245  -0.053714
   44  H  3  S   -0.066298   0.093633  -0.314491  -0.688357  -0.130689
   45  H  3  X    0.084731   0.169472   0.119542  -0.099902  -0.135210
   46  H  3  Y    0.137733  -0.036012  -0.040374   0.150550   0.515499
   47  H  3  Z   -0.047427  -0.116225  -0.330938  -0.129940   0.037544
   48  H  4  S   -0.085594   0.283815  -0.152718   0.344286  -0.140340
   49  H  4  S    0.204647  -0.370530   0.339537  -0.388960   0.191536
   50  H  4  X    0.029377  -0.121395  -0.098572   0.031619  -0.125739
   51  H  4  Y   -0.032092   0.093264   0.014365   0.057705  -0.418788
   52  H  4  Z   -0.053647   0.035807  -0.094430   0.043304   0.231514
   53  H  5  S   -0.187724   0.127403  -0.088480   0.301930  -0.231408
   54  H  5  S   -0.283183   0.144123  -0.003708  -0.313000   0.191474
   55  H  5  X   -0.044880  -0.092447  -0.111738   0.066183   0.204608
   56  H  5  Y   -0.004124   0.031023  -0.005611  -0.150712  -0.381835
   57  H  5  Z   -0.011767  -0.021440  -0.038125  -0.040570   0.404475

                     36         37         38         39         40
                    2.7551     2.8776     2.9206     2.9849     3.1982
                     A          A          A          A          A   
    1  C  1  S   -0.031223  -0.109547  -0.047195   0.152947  -0.004945
    2  C  1  S   -0.433562  -0.737920  -0.365717   1.250665  -0.167840
    3  C  1  X   -0.196953  -0.479796  -0.026755   0.457598  -0.222194
    4  C  1  Y    0.162853  -0.130373   0.099064  -0.055747   0.196421
    5  C  1  Z   -0.051420  -0.125033   0.068636  -0.065977   0.037959
    6  C  1  S   -0.373262   0.522381  -0.077128  -0.492725   0.069527
    7  C  1  X   -0.314477  -0.695669  -0.221962   0.551727  -0.048932
    8  C  1  Y   -0.002170  -0.396376   0.313677  -0.471361   0.211806
    9  C  1  Z    0.139117  -0.680574   0.425633  -0.235995   0.091790
   10  C  1 XX    0.034202   0.085638   0.041338  -0.147239   0.010958
   11  C  1 YY   -0.005102   0.062818   0.107674  -0.078385   0.023235
   12  C  1 ZZ    0.057494   0.047737  -0.039091  -0.129349  -0.018654
   13  C  1 XY    0.029373   0.000576   0.027736   0.029678  -0.030105
   14  C  1 XZ    0.035122   0.036200   0.011474   0.008598  -0.067946
   15  C  1 YZ    0.040683   0.004512   0.015458  -0.005103   0.056028
   16  C  1 XX   -0.181736  -1.084364   0.182747   0.486436  -0.309490
   17  C  1 YY   -0.090509  -0.012177   0.239146   0.256734   0.116211
   18  C  1 ZZ    0.214594  -0.016941  -0.385066  -0.161321   0.133061
   19  C  1 XY    0.359465  -0.177956   0.224920   0.127795   0.187238
   20  C  1 XZ    0.117543  -0.066865   0.276491  -0.135118  -0.038797
   21  C  1 YZ    0.219924  -0.054497   0.137293  -0.101063   0.158004
   22  O  2  S   -0.008671  -0.032442   0.008907   0.017271  -0.030023
   23  O  2  S    0.048186   0.136854   0.009797  -0.136163   0.008024
   24  O  2  X   -0.097849  -0.349067   0.052984   0.203924  -0.181306
   25  O  2  Y   -0.100272  -0.024643  -0.066424  -0.066430   0.097503
   26  O  2  Z   -0.122072  -0.218575   0.035028   0.082340   0.080500
   27  O  2  S    0.607169   1.849772  -0.129781  -1.015148   0.626004
   28  O  2  X   -0.254182  -0.268530  -0.200218   0.477812   0.098727
   29  O  2  Y   -0.230726   0.355165  -0.223254   0.157507  -0.498906
   30  O  2  Z   -0.137438   0.208986  -0.359558   0.377663  -0.295462
   31  O  2 XX   -0.005832  -0.029644   0.013043   0.003554  -0.038680
   32  O  2 YY   -0.020394   0.030973   0.015760   0.019591   0.022479
   33  O  2 ZZ    0.012605  -0.012677  -0.042220   0.001516   0.025449
   34  O  2 XY   -0.024627   0.001195  -0.028714  -0.003830   0.040428
   35  O  2 XZ   -0.045353  -0.043534   0.003715   0.033822   0.049837
   36  O  2 YZ   -0.020115  -0.001974  -0.035938   0.033096   0.016706
   37  O  2 XX    0.168590  -0.154189   0.274817  -0.302226  -0.199151
   38  O  2 YY   -0.098939  -0.245024  -0.048081   0.158640  -0.267418
   39  O  2 ZZ   -0.032801  -0.326867   0.232382   0.176830  -0.219711
   40  O  2 XY    0.258818  -0.228554   0.187038  -0.068424   0.361119
   41  O  2 XZ    0.098161  -0.064960   0.195579  -0.320143   0.195659
   42  O  2 YZ   -0.103633  -0.045466  -0.102355   0.141765  -0.061859
   43  H  3  S   -0.072661   0.023778   0.017592   0.019000   0.097802
   44  H  3  S    0.043780  -0.388800  -0.057187   0.295378  -0.246688
   45  H  3  X    0.069750  -0.592187   0.309786   0.193598  -0.406796
   46  H  3  Y    0.446049  -0.308391   0.183909   0.331748   0.462294
   47  H  3  Z    0.000098   0.303243  -0.379877   0.198027   0.164398
   48  H  4  S   -0.083721  -0.008147  -0.023003   0.050814  -0.028739
   49  H  4  S    0.103629   0.145740  -0.150747   0.330549   0.101360
   50  H  4  X    0.129611  -0.162926   0.245010  -0.678214   0.486150
   51  H  4  Y    0.455887  -0.180272  -0.259710  -0.294349  -0.144598
   52  H  4  Z   -0.592480   0.002844   0.439544  -0.231513  -0.058598
   53  H  5  S   -0.119718  -0.146143   0.013213   0.070339  -0.127718
   54  H  5  S    0.136219  -0.157525   0.215057  -0.290178   0.207602
   55  H  5  X    0.438811   0.418911   0.385299  -0.116068  -0.588682
   56  H  5  Y    0.102401   0.189498   0.489861   0.034573   0.261536
   57  H  5  Z   -0.055098  -0.307900  -0.296802  -0.507725  -0.242060

                     41         42         43         44         45
                    3.2188     3.5190     3.7912     4.0871     4.3408
                     A          A          A          A          A   
    1  C  1  S    0.172880   0.371825   0.230445   0.579736  -0.093682
    2  C  1  S    1.310369   3.267219   2.256032   4.165874  -0.674417
    3  C  1  X    0.364783   0.597246   0.562489   1.077131  -0.207255
    4  C  1  Y   -0.005821   0.051601  -0.008903   0.030637   0.032020
    5  C  1  Z   -0.009919  -0.013868   0.207362   0.375413  -0.132592
    6  C  1  S   -0.454439  -1.039170  -0.247643  -0.537525  -0.092198
    7  C  1  X    0.258597  -0.061354   0.310548   0.816534  -0.042989
    8  C  1  Y    0.186325   0.141353   0.075006   0.080115   0.119357
    9  C  1  Z    0.209205  -0.089256   0.323004   0.637705  -0.007256
   10  C  1 XX   -0.174261  -0.355300  -0.288542  -0.725375   0.013484
   11  C  1 YY   -0.100992  -0.339676  -0.229230  -0.391108   0.131592
   12  C  1 ZZ   -0.107866  -0.354202  -0.221411  -0.314073   0.083371
   13  C  1 XY    0.042362  -0.008650  -0.016480  -0.041820  -0.640888
   14  C  1 XZ   -0.004332  -0.061354   0.014934   0.128679   0.251001
   15  C  1 YZ    0.002530  -0.028700  -0.103649  -0.005116  -0.069659
   16  C  1 XX    0.233416  -0.791635   0.689621   0.967247  -0.140725
   17  C  1 YY    0.236814   0.584186  -0.448747   0.924221  -0.084174
   18  C  1 ZZ    0.106480  -0.032154  -0.140709   1.326200  -0.316456
   19  C  1 XY   -0.129551   0.060398   0.037800   0.135158   0.515191
   20  C  1 XZ   -0.307255  -1.087082   0.538171   0.677776  -0.481146
   21  C  1 YZ   -0.097277  -0.111280  -0.879977   0.438083   0.071044
   22  O  2  S    0.006930  -0.046726  -0.010741  -0.038175   0.005055
   23  O  2  S    0.027109   0.080195   0.134423  -0.057195  -0.006177
   24  O  2  X    0.075479  -0.216973   0.178592   0.122758  -0.039654
   25  O  2  Y   -0.133752   0.044576   0.067939   0.002807  -0.008801
   26  O  2  Z   -0.082894   0.147028   0.036918  -0.048494   0.006504
   27  O  2  S   -0.700785   0.717512  -2.002695  -2.789496   0.623508
   28  O  2  X    0.583788   1.722440   1.319423   2.921639  -0.576756
   29  O  2  Y    0.396226  -0.204529  -0.076237  -0.193875  -0.188556
   30  O  2  Z    0.640046   0.770576  -0.189410  -0.158540   0.200024
   31  O  2 XX    0.020733  -0.017721   0.047870  -0.082252   0.130853
   32  O  2 YY    0.008966   0.003375  -0.036460   0.113471   0.003979
   33  O  2 ZZ   -0.016987   0.039283  -0.037325   0.028725  -0.138946
   34  O  2 XY   -0.078267   0.024223   0.081035   0.081714   0.679948
   35  O  2 XZ   -0.054402   0.083688   0.000217  -0.200861  -0.292098
   36  O  2 YZ   -0.017186  -0.078769  -0.137762   0.003328   0.175607
   37  O  2 XX   -0.385716  -1.732520  -0.709920  -1.774002   0.255373
   38  O  2 YY    0.187783  -0.182941   0.339935   0.073144  -0.064552
   39  O  2 ZZ    0.041048  -0.263747   0.351352   0.134979  -0.010156
   40  O  2 XY   -0.266387   0.118952  -0.013379   0.107312  -0.331362
   41  O  2 XZ   -0.488168  -0.766062   0.079462   0.173492   0.033978
   42  O  2 YZ    0.094746  -0.064427   0.136822  -0.104918  -0.058126
   43  H  3  S    0.114708   0.465020  -0.199204  -0.396049   0.217290
   44  H  3  S   -0.003502   0.373359  -0.049915   0.248008   0.057703
   45  H  3  X   -0.153633   0.503255  -0.263009  -0.443327   0.177037
   46  H  3  Y    0.206496  -0.093053  -0.094543   0.021333   0.124906
   47  H  3  Z    0.171887   0.784728  -0.388109  -0.415677   0.149964
   48  H  4  S   -0.061680   0.121099   0.497586  -0.130004  -0.074071
   49  H  4  S   -0.384712   0.117063   0.271639  -0.021906  -0.037791
   50  H  4  X   -0.368012   0.381242  -0.010052   0.210623  -0.090130
   51  H  4  Y    0.510604  -0.163616  -0.585088   0.201454   0.013827
   52  H  4  Z    0.433411  -0.012924  -0.619479   0.195153   0.070363
   53  H  5  S    0.025831   0.091326   0.470558  -0.266085   0.063630
   54  H  5  S    0.514792   0.112555   0.341744   0.000660   0.045739
   55  H  5  X   -0.087550   0.219147   0.056653   0.150408   0.031661
   56  H  5  Y    0.583012   0.047532   0.515936  -0.406871   0.076305
   57  H  5  Z    0.396259   0.109428   0.557063  -0.378177   0.081678

                     46         47         48         49         50
                    4.5218     4.7172     4.8327     4.9180     5.0174
                     A          A          A          A          A   
    1  C  1  S    0.057099  -0.008880  -0.367181   0.036091  -0.036317
    2  C  1  S    0.374508  -0.050270  -2.231951   0.609973  -0.231321
    3  C  1  X    0.201435   0.025025  -0.155449   0.107241  -0.061448
    4  C  1  Y   -0.007413   0.000721  -0.009970   0.026366   0.000904
    5  C  1  Z    0.147427   0.026617  -0.054103   0.042312  -0.047833
    6  C  1  S    0.098874   0.132849   2.370287  -0.427381   0.111324
    7  C  1  X   -0.043525  -0.048534   0.699274  -0.143712   0.137073
    8  C  1  Y    0.009980  -0.026578  -0.023328   0.011737   0.028732
    9  C  1  Z    0.079194  -0.061824   0.075652  -0.050533   0.123599
   10  C  1 XX    0.092439  -0.020125  -0.326758  -0.183822   0.009123
   11  C  1 YY   -0.167310   0.538398   0.587833   0.030779  -0.772908
   12  C  1 ZZ   -0.088059  -0.503564   0.482159  -0.083351   0.843651
   13  C  1 XY   -0.319253  -0.000979   0.034027   0.044879   0.026416
   14  C  1 XZ   -0.587552   0.038868  -0.188002   0.037823  -0.168624
   15  C  1 YZ    0.071157   0.006422  -0.173975   0.087254  -0.107416
   16  C  1 XX    0.181391   0.018123   0.291158   0.080228  -0.029048
   17  C  1 YY    0.080470  -0.302558  -0.951350  -0.204922   0.474853
   18  C  1 ZZ    0.416968   0.278949  -0.936311  -0.162238  -0.669677
   19  C  1 XY    0.259261  -0.013580  -0.049175  -0.036197  -0.002250
   20  C  1 XZ    0.938158   0.094353   0.149677  -0.067479  -0.045832
   21  C  1 YZ    0.087051  -0.004707  -0.028589  -0.266936   0.058577
   22  O  2  S   -0.002425  -0.002319  -0.054917  -0.005486  -0.003863
   23  O  2  S   -0.116118  -0.032070  -0.488137   0.104619  -0.005062
   24  O  2  X    0.085550   0.006238  -0.080602  -0.016757  -0.026584
   25  O  2  Y   -0.046587   0.000523   0.000295   0.040194  -0.001762
   26  O  2  Z   -0.091242  -0.025882  -0.007627   0.037113   0.036186
   27  O  2  S   -0.567798  -0.015641   0.163921  -0.129374   0.069438
   28  O  2  X    0.385619   0.020581  -0.855172   0.191198  -0.144189
   29  O  2  Y    0.000083   0.016810   0.054804  -0.072794  -0.014664
   30  O  2  Z   -0.295226  -0.026064  -0.047774   0.001688   0.008679
   31  O  2 XX   -0.324730  -0.107163  -0.676803  -0.067916  -0.004120
   32  O  2 YY    0.028428   0.830986   0.362459  -0.002903   0.564253
   33  O  2 ZZ    0.326666  -0.714267   0.450053   0.043035  -0.558718
   34  O  2 XY    0.286826  -0.006097   0.007029  -0.284634  -0.009126
   35  O  2 XZ    0.621830   0.266221  -0.306343  -0.110832  -0.018507
   36  O  2 YZ    0.169473   0.000008  -0.138751   1.068951   0.073912
   37  O  2 XX    0.020315   0.043440   0.905550  -0.075176   0.093546
   38  O  2 YY    0.074574  -0.354010  -0.623339   0.084114  -0.435910
   39  O  2 ZZ   -0.071137   0.298409  -0.639574   0.059980   0.316568
   40  O  2 XY   -0.204253  -0.005944  -0.035648   0.198820   0.017631
   41  O  2 XZ   -0.195094  -0.100883   0.317934   0.042166  -0.020578
   42  O  2 YZ   -0.081163  -0.001307   0.103704  -0.551654  -0.044064
   43  H  3  S   -0.372602  -0.088082   0.005769   0.040682   0.148606
   44  H  3  S   -0.092776  -0.061698  -0.020137  -0.047035   0.077862
   45  H  3  X   -0.220204  -0.058774   0.148114   0.034608   0.133021
   46  H  3  Y    0.033703  -0.013379  -0.007292  -0.029838   0.020433
   47  H  3  Z   -0.231368  -0.016734  -0.006764  -0.000877   0.018869
   48  H  4  S   -0.148331   0.000493   0.074995   0.267233  -0.003549
   49  H  4  S    0.014171   0.013885  -0.155814   0.189854  -0.037516
   50  H  4  X   -0.152430   0.005744  -0.056447   0.151039   0.014879
   51  H  4  Y    0.139034   0.110547  -0.087763  -0.187671  -0.082788
   52  H  4  Z    0.090846  -0.104947  -0.088382  -0.159581   0.054549
   53  H  5  S   -0.056544  -0.013606   0.115146   0.163922   0.022375
   54  H  5  S    0.044166  -0.003627  -0.166052   0.170699  -0.005900
   55  H  5  X    0.240962   0.006715  -0.070184   0.065458  -0.002170
   56  H  5  Y   -0.010555  -0.079904   0.109038   0.130611   0.104624
   57  H  5  Z    0.000636   0.084598   0.109902   0.161046  -0.075959

                     51         52         53         54         55
                    5.1937     5.6183     5.7492     6.2263     7.3407
                     A          A          A          A          A   
    1  C  1  S   -0.000649   0.010295   0.056978  -0.007670   0.100723
    2  C  1  S   -0.417221   0.108584   0.541533   0.569322   0.562628
    3  C  1  X   -0.099747   0.051105   0.154937   0.603439  -0.453239
    4  C  1  Y    0.007420  -0.107779   0.052606   0.011948   0.007454
    5  C  1  Z   -0.008975   0.103023   0.189063   0.074168  -0.068793
    6  C  1  S    0.608862   0.029446   0.125341   0.179204   0.642561
    7  C  1  X    0.090653  -0.031499  -0.022981  -0.146475   0.677050
    8  C  1  Y   -0.131115  -0.492467   0.428554  -0.046757   0.027140
    9  C  1  Z   -0.101259   0.157840   0.701166  -0.207934   0.284500
   10  C  1 XX    0.064149   0.176732   0.296784   1.039401  -0.535323
   11  C  1 YY    0.068764  -0.001658  -0.092594  -0.528077   0.082705
   12  C  1 ZZ   -0.068821  -0.225916  -0.476234  -0.394541   0.049738
   13  C  1 XY    0.199798   0.803398  -0.442670   0.029318  -0.000581
   14  C  1 XZ   -0.003389  -0.434846  -0.761836   0.490651  -0.157243
   15  C  1 YZ   -1.137181   0.187180  -0.182903  -0.086939   0.006562
   16  C  1 XX   -0.198507  -0.046899  -0.143330  -0.620464  -0.017492
   17  C  1 YY    0.255750  -0.037174   0.038382   0.263997   0.070516
   18  C  1 ZZ    0.406446   0.205738   0.531583   0.068183   0.111373
   19  C  1 XY   -0.102053  -0.638976   0.434670  -0.039718   0.010804
   20  C  1 XZ    0.047610   0.428817   0.943744  -0.481848   0.059011
   21  C  1 YZ    1.166228  -0.155487   0.251639   0.148515  -0.047688
   22  O  2  S    0.002763   0.000567   0.002906  -0.018577  -0.311865
   23  O  2  S    0.129602  -0.056984  -0.036713  -1.874239  -6.872046
   24  O  2  X   -0.051222   0.033990   0.076380   0.458769  -0.404098
   25  O  2  Y   -0.048927  -0.053584   0.023632   0.001213   0.010536
   26  O  2  Z   -0.066791   0.021127   0.033508   0.108383  -0.066968
   27  O  2  S   -0.111567  -0.118873  -0.516588   2.738774  10.175392
   28  O  2  X    0.035449   0.138573   0.523156   0.314925   0.715733
   29  O  2  Y    0.066400   0.590605  -0.436975   0.010741  -0.038729
   30  O  2  Z    0.041999  -0.319983  -0.784149   0.304801  -0.010664
   31  O  2 XX    0.102922   0.091769   0.167886  -0.672538   1.425172
   32  O  2 YY   -0.133664   0.016835   0.019424   0.650055   0.774545
   33  O  2 ZZ    0.003280  -0.093388  -0.180766   0.610431   0.791986
   34  O  2 XY    0.100345   0.735434  -0.414283   0.006419  -0.021922
   35  O  2 XZ    0.169355  -0.375470  -0.678289  -0.238788   0.117312
   36  O  2 YZ    0.148439   0.140128  -0.082120   0.019079   0.018693
   37  O  2 XX   -0.038153  -0.111544  -0.366185  -0.843901  -4.074286
   38  O  2 YY    0.001109   0.015240   0.049845  -0.982745  -3.562177
   39  O  2 ZZ   -0.099732   0.078409   0.216852  -1.005550  -3.554385
   40  O  2 XY   -0.044993  -0.558349   0.393598   0.002347   0.044501
   41  O  2 XZ   -0.069010   0.287370   0.649279  -0.131232  -0.009884
   42  O  2 YZ   -0.252864  -0.099165   0.041153  -0.052926  -0.015008
   43  H  3  S   -0.103546  -0.133188  -0.253490   0.182585  -0.037396
   44  H  3  S    0.004261   0.031847   0.055472  -0.038162   0.162248
   45  H  3  X   -0.081109  -0.055860  -0.138462   0.022124  -0.072052
   46  H  3  Y    0.142206  -0.071559   0.046555   0.013010  -0.018664
   47  H  3  Z    0.001989  -0.044769  -0.116691   0.157856  -0.010593
   48  H  4  S   -0.432723   0.006566  -0.047973  -0.066459   0.092772
   49  H  4  S   -0.101258   0.056407  -0.157772   0.010145  -0.081559
   50  H  4  X    0.052852  -0.013444   0.033031   0.099270   0.087977
   51  H  4  Y    0.216655   0.022698  -0.006900   0.021328  -0.073416
   52  H  4  Z    0.203067   0.001462  -0.030719   0.053216  -0.064652
   53  H  5  S   -0.469868   0.003201  -0.118384  -0.106569   0.032825
   54  H  5  S   -0.192997  -0.072072   0.132186  -0.038591  -0.045726
   55  H  5  X    0.014221   0.009052   0.062759  -0.006003   0.053787
   56  H  5  Y   -0.204888  -0.001940  -0.130124  -0.005083   0.026481
   57  H  5  Z   -0.202397   0.022429  -0.105550  -0.017576   0.040121

                     56         57
                   10.8818    13.7743
                     A          A   
    1  C  1  S   -0.670419   0.052567
    2  C  1  S    6.552826   0.205499
    3  C  1  X   -0.218184  -0.103585
    4  C  1  Y   -0.007419   0.006187
    5  C  1  Z   -0.084051  -0.014917
    6  C  1  S    4.752886  -0.002107
    7  C  1  X   -0.605472   0.325022
    8  C  1  Y   -0.050073   0.012331
    9  C  1  Z   -0.485729   0.141689
   10  C  1 XX   -3.047432   0.166850
   11  C  1 YY   -3.096661   0.039299
   12  C  1 ZZ   -3.078372   0.046266
   13  C  1 XY    0.011335   0.002573
   14  C  1 XZ    0.049739   0.032959
   15  C  1 YZ    0.012504  -0.002872
   16  C  1 XX   -3.073789  -0.039909
   17  C  1 YY   -3.026510   0.284050
   18  C  1 ZZ   -3.118624   0.272604
   19  C  1 XY   -0.045173   0.000617
   20  C  1 XZ   -0.226071  -0.067656
   21  C  1 YZ   -0.045553  -0.005712
   22  O  2  S   -0.041319  -1.317610
   23  O  2  S   -0.172254  -3.679102
   24  O  2  X    0.151540  -0.100268
   25  O  2  Y   -0.001842   0.005054
   26  O  2  Z    0.016911  -0.009297
   27  O  2  S    1.393962  17.092868
   28  O  2  X   -0.997888   0.487427
   29  O  2  Y    0.073086  -0.016897
   30  O  2  Z    0.142019   0.041019
   31  O  2 XX    0.060622  -1.934681
   32  O  2 YY   -0.036448  -1.994342
   33  O  2 ZZ   -0.028791  -1.995227
   34  O  2 XY    0.006245  -0.007322
   35  O  2 XZ    0.048722   0.003300
   36  O  2 YZ   -0.020887   0.006693
   37  O  2 XX    0.267484  -5.731278
   38  O  2 YY   -0.046882  -5.439391
   39  O  2 ZZ   -0.080210  -5.438517
   40  O  2 XY   -0.039612   0.022470
   41  O  2 XZ   -0.104414  -0.027954
   42  O  2 YZ    0.057253  -0.011960
   43  H  3  S    0.206708   0.005622
   44  H  3  S   -0.494184   0.113316
   45  H  3  X    0.056659  -0.039028
   46  H  3  Y   -0.022565  -0.009219
   47  H  3  Z    0.025115   0.026237
   48  H  4  S    0.165245   0.052754
   49  H  4  S   -0.297766  -0.076681
   50  H  4  X   -0.047428   0.070818
   51  H  4  Y    0.009242  -0.035628
   52  H  4  Z    0.018152  -0.025015
   53  H  5  S    0.153165  -0.001418
   54  H  5  S   -0.301558  -0.041593
   55  H  5  X   -0.040391   0.038867
   56  H  5  Y    0.025157   0.019825
   57  H  5  Z    0.010531   0.028164

  ----- BETA SET ----- 

          ------------
          EIGENVECTORS
          ------------

                      1          2          3          4          5
                  -20.3061   -11.1202    -1.3039    -0.5328    -0.4891
                     A          A          A          A          A   
    1  C  1  S    0.000074   0.995639  -0.128657   0.137500  -0.014284
    2  C  1  S   -0.000054   0.008501   0.241006  -0.260566   0.017547
    3  C  1  X   -0.000270   0.001518   0.251387  -0.011656   0.020662
    4  C  1  Y   -0.000010  -0.000506   0.000705   0.020262   0.210235
    5  C  1  Z   -0.000055   0.000322   0.050972   0.059066   0.249594
    6  C  1  S    0.003156   0.001027   0.082590  -0.211337  -0.005254
    7  C  1  X    0.001079   0.000094  -0.000032   0.066387  -0.023297
    8  C  1  Y   -0.000073  -0.000017  -0.000192  -0.001615   0.063891
    9  C  1  Z    0.000103   0.000175  -0.006567   0.024894   0.068495
   10  C  1 XX   -0.000628   0.005672   0.028716  -0.017390  -0.000179
   11  C  1 YY    0.000189   0.004639   0.000011  -0.009612   0.001295
   12  C  1 ZZ    0.000158   0.004655   0.001145  -0.010073   0.005987
   13  C  1 XY    0.000003   0.000096   0.000123   0.001255   0.012371
   14  C  1 XZ   -0.000182   0.000191   0.006713  -0.000262   0.013043
   15  C  1 YZ   -0.000022  -0.000065  -0.000039  -0.001407   0.002313
   16  C  1 XX   -0.000277  -0.000519   0.035160  -0.009684  -0.008458
   17  C  1 YY   -0.000294  -0.000369  -0.005091  -0.010547  -0.002741
   18  C  1 ZZ   -0.000298  -0.000298  -0.002466  -0.018395   0.009255
   19  C  1 XY   -0.000012  -0.000321   0.000261   0.000745   0.020444
   20  C  1 XZ   -0.000012   0.000142   0.008631  -0.008150   0.020381
   21  C  1 YZ    0.000006   0.000099  -0.001669  -0.008900   0.005766
   22  O  2  S    0.997696  -0.001152  -0.204629  -0.108801   0.029678
   23  O  2  S    0.040566   0.001207   0.419798   0.243312  -0.064385
   24  O  2  X   -0.002002  -0.001864  -0.188655   0.363320  -0.199118
   25  O  2  Y    0.000059   0.000107   0.003784   0.028942   0.297076
   26  O  2  Z   -0.000540  -0.000365  -0.033411   0.135705   0.301814
   27  O  2  S   -0.048173  -0.002271   0.299879   0.427587  -0.119702
   28  O  2  X    0.001446   0.001726   0.012089   0.183292  -0.111666
   29  O  2  Y    0.000002   0.000334   0.004445   0.022634   0.157929
   30  O  2  Z    0.000390   0.000182   0.009367   0.079742   0.161980
   31  O  2 XX    0.000877   0.001333   0.013843  -0.017918   0.012426
   32  O  2 YY   -0.000144  -0.000224  -0.017101   0.000897  -0.000427
   33  O  2 ZZ   -0.000081  -0.000157  -0.015660  -0.001533  -0.007084
   34  O  2 XY   -0.000054  -0.000003  -0.000426  -0.001155  -0.015016
   35  O  2 XZ    0.000210   0.000362   0.007274  -0.008392  -0.013924
   36  O  2 YZ    0.000166  -0.000035  -0.000074   0.000176  -0.002745
   37  O  2 XX    0.012835  -0.000854  -0.029960  -0.009194   0.007656
   38  O  2 YY    0.013219   0.000479  -0.009642  -0.007373   0.008381
   39  O  2 ZZ    0.013201   0.000442  -0.011109  -0.007771   0.002216
   40  O  2 XY   -0.000008  -0.000262  -0.001264  -0.002376  -0.005838
   41  O  2 XZ   -0.000106  -0.000214  -0.007049  -0.005967  -0.005174
   42  O  2 YZ    0.000004  -0.000122  -0.001090   0.001983   0.003599
   43  H  3  S    0.000009   0.000117   0.004345  -0.100859  -0.049571
   44  H  3  S    0.000003   0.000017  -0.009475  -0.070284  -0.037826
   45  H  3  X   -0.000014  -0.000048   0.002877  -0.007627  -0.005127
   46  H  3  Y   -0.000002  -0.000005  -0.000123   0.000769   0.003593
   47  H  3  Z    0.000028  -0.000006   0.000703  -0.006216  -0.001983
   48  H  4  S   -0.000048   0.000100   0.022672  -0.034711   0.110481
   49  H  4  S    0.000036  -0.000078   0.000073  -0.022840   0.098863
   50  H  4  X    0.000015  -0.000003   0.000883   0.001638   0.001233
   51  H  4  Y   -0.000014   0.000041  -0.002586   0.002995  -0.005292
   52  H  4  Z   -0.000019   0.000051  -0.002412   0.003048  -0.004654
   53  H  5  S   -0.000053   0.000092   0.013881  -0.079448  -0.089842
   54  H  5  S   -0.000098   0.000073   0.000231  -0.061602  -0.084080
   55  H  5  X   -0.000005   0.000026   0.000387   0.002253   0.002899
   56  H  5  Y   -0.000023  -0.000074   0.001915  -0.005087  -0.004401
   57  H  5  Z   -0.000026  -0.000048   0.001964  -0.003834  -0.002701

                      6          7          8          9         10
                   -0.4231    -0.3884    -0.0707     0.0285     0.3535
                     A          A          A          A          A   
    1  C  1  S    0.038467  -0.029100  -0.031332   0.028661  -0.116665
    2  C  1  S   -0.048793   0.039516   0.019132  -0.035749   0.041415
    3  C  1  X    0.341841  -0.209382  -0.105451   0.035247  -0.246663
    4  C  1  Y   -0.150926  -0.225972   0.079958  -0.113827  -0.069238
    5  C  1  Z    0.134012   0.192074   0.093628   0.015962   0.066519
    6  C  1  S   -0.185422   0.106315   0.181335  -0.173653   1.075140
    7  C  1  X    0.062762  -0.074104  -0.111198   0.061927  -0.436627
    8  C  1  Y   -0.059528  -0.095592   0.090404  -0.159566  -0.135367
    9  C  1  Z    0.025198   0.100521   0.095785   0.015281   0.083271
   10  C  1 XX    0.006850  -0.008358   0.003451  -0.016886   0.023080
   11  C  1 YY   -0.007797   0.006283   0.007117   0.004161   0.025217
   12  C  1 ZZ   -0.008770   0.010957   0.000740  -0.001392   0.018545
   13  C  1 XY   -0.009544  -0.015344  -0.012161   0.005646   0.009320
   14  C  1 XZ    0.004218   0.013563  -0.016582  -0.008101  -0.009428
   15  C  1 YZ   -0.004338  -0.002057  -0.000608   0.011646  -0.005242
   16  C  1 XX   -0.004721  -0.016855  -0.020078  -0.033688  -0.039421
   17  C  1 YY   -0.012693   0.008095   0.001677   0.032180  -0.007627
   18  C  1 ZZ   -0.025042   0.029825  -0.006012   0.012728   0.001439
   19  C  1 XY   -0.020007  -0.032437  -0.023501   0.006229  -0.000726
   20  C  1 XZ   -0.011941   0.042986  -0.039909  -0.028012   0.016882
   21  C  1 YZ   -0.014224  -0.000126   0.000791   0.036681   0.005515
   22  O  2  S    0.020174  -0.001984   0.015834   0.025961   0.005656
   23  O  2  S   -0.043251   0.004497  -0.040994  -0.071057   0.004138
   24  O  2  X   -0.341713   0.064076   0.111165   0.051388   0.079131
   25  O  2  Y   -0.212893  -0.315440  -0.280258   0.144529   0.172005
   26  O  2  Z   -0.025309   0.364608  -0.315366  -0.015938  -0.044180
   27  O  2  S   -0.157773   0.057691  -0.018312  -0.106903   0.074229
   28  O  2  X   -0.163067   0.019127   0.074157   0.038786   0.068360
   29  O  2  Y   -0.119014  -0.190669  -0.268777   0.172217   0.246573
   30  O  2  Z    0.011042   0.200191  -0.306126  -0.018976  -0.088708
   31  O  2 XX    0.021096  -0.001054  -0.005083  -0.003090  -0.001500
   32  O  2 YY   -0.007220   0.003243   0.003038   0.004855  -0.000144
   33  O  2 ZZ   -0.007336  -0.004293   0.004937   0.004285  -0.000816
   34  O  2 XY    0.011538   0.018509   0.004399  -0.000711   0.000861
   35  O  2 XZ    0.003056  -0.020972   0.003499  -0.000655  -0.001933
   36  O  2 YZ    0.001424   0.004618   0.002778   0.004684  -0.004028
   37  O  2 XX   -0.005007   0.005365  -0.000125  -0.006430  -0.000782
   38  O  2 YY    0.001010  -0.005073  -0.002817  -0.004242   0.024103
   39  O  2 ZZ    0.002728   0.000302  -0.002618  -0.006624   0.023957
   40  O  2 XY    0.000872   0.006547   0.005808  -0.009278  -0.017354
   41  O  2 XZ   -0.012298   0.002661   0.004683  -0.002657   0.010258
   42  O  2 YZ    0.000649  -0.001287  -0.004948  -0.003471  -0.003673
   43  H  3  S   -0.152183   0.039645  -0.096713  -0.172268  -0.123268
   44  H  3  S   -0.166112   0.045974  -0.207461  -0.513804  -0.845998
   45  H  3  X   -0.006121  -0.001981  -0.004121   0.000214  -0.004320
   46  H  3  Y   -0.001867  -0.003145   0.005447  -0.010004  -0.002405
   47  H  3  Z   -0.007501   0.001275   0.002774  -0.007142   0.004752
   48  H  4  S   -0.076593   0.030012   0.204569   0.127465  -0.122820
   49  H  4  S   -0.103415   0.042463   0.449403   0.419693  -0.711622
   50  H  4  X    0.001498  -0.002238  -0.006413   0.002198  -0.002903
   51  H  4  Y    0.001808  -0.003501  -0.007505  -0.000728  -0.000548
   52  H  4  Z    0.004180   0.001128  -0.007886   0.000378   0.000817
   53  H  5  S   -0.054071   0.043492  -0.132372   0.231455  -0.025637
   54  H  5  S   -0.047017   0.052028  -0.252733   0.730301  -0.139376
   55  H  5  X    0.002789  -0.002113   0.004812  -0.001863  -0.000493
   56  H  5  Y   -0.004054   0.000652  -0.007953   0.005865  -0.002532
   57  H  5  Z   -0.001182   0.003151  -0.004574   0.005846   0.002277

                     11         12         13         14         15
                    0.4782     0.5283     0.6685     0.8751     0.9612
                     A          A          A          A          A   
    1  C  1  S    0.042715   0.012921  -0.015545  -0.010825  -0.045931
    2  C  1  S   -0.059698  -0.023420  -0.005251  -0.297019  -0.610033
    3  C  1  X    0.049331  -0.027644   0.084005   0.267765   0.256737
    4  C  1  Y   -0.237135   0.352701  -0.093973   0.511770  -0.299196
    5  C  1  Z    0.271394   0.315352   0.091876  -0.501479   0.079525
    6  C  1  S   -0.825687  -0.016122   3.754347   1.207295   1.466971
    7  C  1  X   -0.246915   0.116245   3.025973  -0.008966  -0.719967
    8  C  1  Y   -0.589906   1.161665  -0.063439  -0.826636   0.946444
    9  C  1  Z    0.732881   1.176791   0.853203   0.957354  -0.134169
   10  C  1 XX    0.004872  -0.002986  -0.043504   0.010866   0.027753
   11  C  1 YY   -0.014609  -0.003385   0.007500   0.002519   0.015028
   12  C  1 ZZ   -0.014724  -0.002342   0.010519  -0.002595   0.013692
   13  C  1 XY    0.009368  -0.006710   0.001699   0.015164  -0.013170
   14  C  1 XZ   -0.005056  -0.004115  -0.007744  -0.015956   0.003862
   15  C  1 YZ    0.002274  -0.000614  -0.009534   0.004011   0.001506
   16  C  1 XX   -0.046222  -0.016045   0.118318  -0.224925  -0.355191
[...]
   40  O  2 XY   -0.010538   0.005570   0.000521  -0.006942   0.000178
   41  O  2 XZ   -0.001218  -0.000473   0.006989   0.000257  -0.000013
   42  O  2 YZ    0.000944  -0.000084   0.002097   0.000749  -0.000002
   43  H  3  S    0.130377  -0.057293  -0.123665  -0.117466  -0.006519
   44  H  3  S    0.146406  -0.084006  -0.256983  -0.244102   1.261209
   45  H  3  X    0.003692   0.002653  -0.004212  -0.003484   0.002875
   46  H  3  Y    0.001056   0.002956   0.004330   0.000943  -0.001942
   47  H  3  Z    0.007552  -0.002927  -0.002571  -0.005175   0.002794
   48  H  4  S    0.095465  -0.057270   0.163553  -0.048372  -0.006528
   49  H  4  S    0.107202  -0.083976   0.339873  -0.100523   1.261274
   50  H  4  X    0.001879   0.002952   0.004831  -0.000893   0.002583
   51  H  4  Y    0.004502   0.001807  -0.002335  -0.002265  -0.000814
   52  H  4  Z   -0.005803   0.003516  -0.006292   0.002930  -0.003537
   53  H  5  S   -0.225846  -0.057256  -0.039897   0.165828  -0.006534
   54  H  5  S   -0.253612  -0.083958  -0.082912   0.344608   1.261272
   55  H  5  X   -0.004743   0.003755  -0.000649   0.003293   0.001793
   56  H  5  Y   -0.010303  -0.003115  -0.002345   0.007454   0.004029
   57  H  5  Z   -0.002195  -0.000728   0.002635   0.001903   0.000636

                     11         12         13         14         15
                    0.5635     0.5635     0.6134     0.9869     0.9869
                     A          A          A          A          A   
    1  C  1  S    0.000010  -0.000002   0.037374   0.000006  -0.000006
    2  C  1  S   -0.000010   0.000003  -0.104097   0.000113   0.000024
    3  C  1  X   -0.047737   0.046973  -0.098090  -0.088577  -0.041980
    4  C  1  Y    0.246407  -0.288178  -0.017322   0.520269   0.193984
    5  C  1  Z   -0.291927  -0.250926   0.001503   0.198291  -0.527686
    6  C  1  S   -0.000485   0.000107  -1.914709  -0.000299  -0.000102
    7  C  1  X   -0.191766   0.188610  -2.265008   0.207375   0.098195
    8  C  1  Y    0.989167  -1.156854  -0.398897  -1.218632  -0.454384
    9  C  1  Z   -1.171984  -1.007363   0.034015  -0.464499   1.236105
   10  C  1 XX   -0.001167   0.000814   0.039108   0.000879   0.000600
   11  C  1 YY    0.002892  -0.011871  -0.014825  -0.008310   0.000881
   12  C  1 ZZ   -0.001730   0.011057  -0.016535   0.007414  -0.001478
   13  C  1 XY    0.003186  -0.001773   0.011309  -0.002178  -0.001725
   14  C  1 XZ   -0.006350  -0.003747  -0.000959  -0.001030   0.005226
   15  C  1 YZ    0.011686   0.001551  -0.000171  -0.001744  -0.007713
   16  C  1 XX    0.017368  -0.015342  -0.285996   0.031585   0.022346
   17  C  1 YY   -0.025487   0.074631   0.070901  -0.338050   0.038334
   18  C  1 ZZ    0.008092  -0.059279   0.082208   0.306558  -0.060656
   19  C  1 XY   -0.049140   0.047370  -0.074834  -0.073721  -0.065305
   20  C  1 XZ    0.073074   0.053957   0.006346  -0.036061   0.198984
   21  C  1 YZ   -0.054243  -0.002783   0.001131  -0.071200  -0.322026
   22  O  2  S   -0.000008   0.000002  -0.053268  -0.000001   0.000002
   23  O  2  S    0.000041  -0.000012   0.304216   0.000009   0.000006
   24  O  2  X    0.017369  -0.017114  -0.151393  -0.019298  -0.009127
   25  O  2  Y   -0.089822   0.105048  -0.026630   0.113501   0.042317
   26  O  2  Z    0.106403   0.091462   0.002253   0.043265  -0.115119
   27  O  2  S    0.000203  -0.000060   1.749253   0.000160   0.000174
   28  O  2  X    0.044900  -0.044308  -1.336247  -0.053396  -0.025383
   29  O  2  Y   -0.232752   0.272180  -0.235134   0.313034   0.116691
   30  O  2  Z    0.275714   0.236986   0.019941   0.119328  -0.317520
   31  O  2 XX    0.002624  -0.002610  -0.007860  -0.004046  -0.001915
   32  O  2 YY   -0.002241   0.001942  -0.012868   0.004065   0.001577
   33  O  2 ZZ   -0.000388   0.000669  -0.013027  -0.000021   0.000337
   34  O  2 XY   -0.007573   0.009064   0.001052   0.013314   0.004908
   35  O  2 XZ    0.009070   0.007976  -0.000090   0.005264  -0.013859
   36  O  2 YZ    0.002743   0.001435  -0.000016   0.000690  -0.002653
   37  O  2 XX   -0.005086   0.004693   0.476378   0.052066   0.026209
   38  O  2 YY    0.006617  -0.016601   0.190522  -0.114135  -0.010061
   39  O  2 ZZ   -0.001427   0.011875   0.181452   0.062113  -0.016077
   40  O  2 XY    0.014634  -0.015134   0.059950  -0.165032  -0.068527
   41  O  2 XZ   -0.020464  -0.015857  -0.005089  -0.066647   0.196495
   42  O  2 YZ    0.009617  -0.000267  -0.000898  -0.022163  -0.035114
   43  H  3  S   -0.018612  -0.000079  -0.040894   0.138674   0.385056
   44  H  3  S   -1.896764  -0.009392  -0.035297   0.011025   0.030803
   45  H  3  X   -0.014145   0.001116  -0.008175   0.005407   0.006648
   46  H  3  Y    0.010869  -0.007207  -0.006436  -0.015080   0.009452
   47  H  3  Z   -0.015212  -0.006335   0.005918  -0.015080   0.002395
   48  H  4  S    0.009202   0.016159  -0.040882   0.264167  -0.312584
   49  H  4  S    0.940462   1.647465  -0.035798   0.021100  -0.025133
   50  H  4  X    0.004804   0.011698  -0.008780   0.008368  -0.003880
   51  H  4  Y    0.005452  -0.008510  -0.004134  -0.014637  -0.015901
   52  H  4  Z   -0.012357  -0.015108  -0.007020   0.008032   0.002528
   53  H  5  S    0.009372  -0.016063  -0.040878  -0.402767  -0.072441
   54  H  5  S    0.956606  -1.638137  -0.036003  -0.032182  -0.005831
   55  H  5  X    0.003775  -0.007339  -0.010395  -0.009171  -0.000580
   56  H  5  Y    0.012391  -0.017860   0.005757   0.002664  -0.003642
   57  H  5  Z   -0.006447  -0.007794   0.001509  -0.003265   0.022531

                     16         17         18         19
                    1.0529     1.1789     1.1789     1.3236
                     A          A          A          A   
    1  C  1  S    0.052129   0.000003   0.000000  -0.090855
    2  C  1  S   -0.452874  -0.000228  -0.000041   0.459340
    3  C  1  X   -0.558770   0.119454  -0.050544   0.144260
    4  C  1  Y   -0.098209  -0.649504   0.343232   0.121359
    5  C  1  Z    0.008267   0.346773   0.660305  -0.019906
    6  C  1  S    1.493923   0.000379   0.000067   0.396911
    7  C  1  X    1.175449  -0.267653   0.113266   0.419821
    8  C  1  Y    0.206599   1.455426  -0.769109  -0.246754
    9  C  1  Z   -0.017400  -0.777090  -1.479664   0.053033
   10  C  1 XX    0.007328   0.000630  -0.000354  -0.035585
   11  C  1 YY    0.004145   0.001541  -0.003106  -0.029661
   12  C  1 ZZ    0.004045  -0.002132   0.003467  -0.025359
   13  C  1 XY    0.000667  -0.002088   0.001647  -0.002758
   14  C  1 XZ   -0.000056   0.000207   0.001451   0.000762
   15  C  1 YZ   -0.000011   0.004186   0.002727  -0.001764
   16  C  1 XX    0.516334   0.110688  -0.038138   0.488346
   17  C  1 YY   -0.321186  -0.297298   0.365157  -0.270037
   18  C  1 ZZ   -0.347746   0.186553  -0.327023  -0.493136
   19  C  1 XY    0.175654  -0.315990   0.119847  -0.038220
   20  C  1 XZ   -0.014923   0.258169   0.399833  -0.004956
   21  C  1 YZ   -0.002645  -0.321356  -0.157140   0.135804
   22  O  2  S   -0.050321  -0.000007  -0.000001   0.133190
   23  O  2  S    0.036251   0.000000  -0.000001  -0.009570
   24  O  2  X   -0.358032   0.001786  -0.000775  -0.215748
   25  O  2  Y   -0.063000  -0.009886   0.005229   0.045816
   26  O  2  Z    0.005345   0.005268   0.010048  -0.012275
   27  O  2  S   -0.947225  -0.000052  -0.000015  -1.535092
   28  O  2  X    0.482828  -0.002969   0.001269   0.835018
   29  O  2  Y    0.085019   0.016175  -0.008566   0.245416
   30  O  2  Z   -0.007236  -0.008623  -0.016459  -0.030715
   31  O  2 XX   -0.008552  -0.000317   0.000222  -0.007824
   32  O  2 YY    0.006203  -0.001606   0.002928  -0.012118
   33  O  2 ZZ    0.006671   0.001927  -0.003149  -0.012579
   34  O  2 XY   -0.003093   0.001167  -0.001104   0.005078
   35  O  2 XZ    0.000262   0.000206  -0.000555  -0.000731
   36  O  2 YZ    0.000046  -0.003697  -0.002334  -0.000653
   37  O  2 XX   -0.623673  -0.070196   0.029163   0.442712
   38  O  2 YY    0.028833   0.077582  -0.052421   0.474104
   39  O  2 ZZ    0.049566  -0.007465   0.023246   0.321163
   40  O  2 XY   -0.136891   0.211771  -0.110020   0.012121
   41  O  2 XZ    0.011649  -0.120910  -0.226475  -0.018320
   42  O  2 YZ    0.002037  -0.004241  -0.025741   0.074049
   43  H  3  S   -0.015439   0.320906   0.128961  -0.334057
   44  H  3  S   -0.015646  -1.523143  -0.612130   0.410393
   45  H  3  X   -0.010316  -0.085252  -0.036706  -0.001502
   46  H  3  Y   -0.012888   0.045867   0.033418  -0.040377
   47  H  3  Z    0.012997  -0.079986  -0.019233   0.059167
   48  H  4  S   -0.015450  -0.048726  -0.342334  -0.369044
   49  H  4  S   -0.015834   0.231334   1.625079   0.317969
   50  H  4  X   -0.011652   0.014953   0.082962   0.003207
   51  H  4  Y   -0.007779  -0.020091  -0.019461  -0.007748
   52  H  4  Z   -0.015649  -0.008426  -0.103162  -0.061163
   53  H  5  S   -0.015472  -0.272076   0.213395  -0.430973
   54  H  5  S   -0.015896   1.291567  -1.012999   0.154427
   55  H  5  X   -0.015225   0.048690  -0.037118   0.016358
   56  H  5  Y    0.014105   0.091679  -0.076020   0.045911
   57  H  5  Z    0.003219   0.025689   0.002975   0.002725

     ----------------------------------------------------------------
     PROPERTY VALUES FOR THE UHF   SELF-CONSISTENT FIELD WAVEFUNCTION
     ----------------------------------------------------------------

          -----------------
          ENERGY COMPONENTS
          -----------------

         WAVEFUNCTION NORMALIZATION =       1.0000000000

                ONE ELECTRON ENERGY =    -230.9139139336
                TWO ELECTRON ENERGY =      81.6921327531
           NUCLEAR REPULSION ENERGY =      34.8296431279
                                      ------------------
                       TOTAL ENERGY =    -114.3921380526

 ELECTRON-ELECTRON POTENTIAL ENERGY =      81.6921327531
  NUCLEUS-ELECTRON POTENTIAL ENERGY =    -345.4665723338
   NUCLEUS-NUCLEUS POTENTIAL ENERGY =      34.8296431279
                                      ------------------
             TOTAL POTENTIAL ENERGY =    -228.9447964528
               TOTAL KINETIC ENERGY =     114.5526584002
                 VIRIAL RATIO (V/T) =       1.9985987200

          ---------------------------------------
          MULLIKEN AND LOWDIN POPULATION ANALYSES
          ---------------------------------------

     ATOMIC MULLIKEN POPULATION IN EACH MOLECULAR ORBITAL
        ALPHA ORBITALS

                      1          2          3          4          5

                  1.000000   1.000000   1.000000   1.000000   1.000000

    1             0.000239   0.999723   0.257446   0.485654   0.434955
    2             0.999766   0.000062   0.714425   0.156909   0.185157
    3            -0.000002   0.000072   0.009376   0.119119   0.169270
    4            -0.000002   0.000072   0.009377   0.119155   0.207870
    5            -0.000002   0.000072   0.009377   0.119163   0.002748

                      6          7          8          9

                  1.000000   1.000000   1.000000   1.000000

    1             0.434959   0.242337   0.048605   0.048609
    2             0.185174   0.694006   0.739846   0.739826
    3             0.083991   0.021233   0.074142   0.066909
    4             0.045380   0.021217   0.129568   0.011460
    5             0.250496   0.021208   0.007840   0.133196

     ATOMIC MULLIKEN POPULATION IN EACH MOLECULAR ORBITAL
         BETA ORBITALS

                      1          2          3          4          5

                  1.000000   1.000000   1.000000   1.000000   1.000000

    1             0.000239   0.999723   0.257446   0.485654   0.434955
    2             0.999766   0.000062   0.714425   0.156909   0.185157
    3            -0.000002   0.000072   0.009376   0.119119   0.169270
    4            -0.000002   0.000072   0.009377   0.119155   0.207870
    5            -0.000002   0.000072   0.009377   0.119163   0.002748

                      6          7          8          9

                  1.000000   1.000000   1.000000   1.000000

    1             0.434959   0.242337   0.048605   0.048609
    2             0.185174   0.694006   0.739846   0.739826
    3             0.083991   0.021233   0.074142   0.066909
    4             0.045380   0.021217   0.129568   0.011460
    5             0.250496   0.021208   0.007840   0.133196

     ATOMIC SPIN POPULATION (ALPHA MINUS BETA)
       ATOM         MULL.POP.                    LOW.POP.
    1 C             0.000000                     0.000000
    2 O             0.000000                     0.000000
    3 H             0.000000                     0.000000
    4 H             0.000000                     0.000000
    5 H             0.000000                     0.000000


          ********* ALL ELECTRONS ********

               ----- POPULATIONS IN EACH AO -----
                             MULLIKEN      LOWDIN
              1  C  1  S      1.99614     1.95232
              2  C  1  S      0.57411     0.25972
              3  C  1  X      0.66941     0.58817
              4  C  1  Y      0.60903     0.51678
              5  C  1  Z      0.60711     0.51431
              6  C  1  S      0.37765     0.24751
              7  C  1  X      0.18920     0.30761
              8  C  1  Y      0.27967     0.46107
              9  C  1  Z      0.28253     0.46644
             10  C  1 XX      0.03110     0.10274
             11  C  1 YY      0.01773     0.08480
             12  C  1 ZZ      0.01664     0.08347
             13  C  1 XY      0.00460     0.00534
             14  C  1 XZ      0.00579     0.00667
             15  C  1 YZ      0.00099     0.00082
             16  C  1 XX      0.05533     0.18631
             17  C  1 YY      0.03538     0.16319
             18  C  1 ZZ      0.02791     0.13921
             19  C  1 XY      0.05460     0.17774
             20  C  1 XZ      0.06629     0.22776
             21  C  1 YZ      0.00384     0.01791
             22  O  2  S      2.00241     1.97359
             23  O  2  S      0.88157     0.50833
             24  O  2  X      0.78648     0.74798
             25  O  2  Y      1.03007     0.99267
             26  O  2  Z      1.03780     0.99887
             27  O  2  S      1.03229     0.38936
             28  O  2  X      0.52260     0.58347
             29  O  2  Y      0.79695     0.75607
             30  O  2  Z      0.80566     0.75865
             31  O  2 XX     -0.00358     0.19038
             32  O  2 YY     -0.01557     0.18160
             33  O  2 ZZ     -0.01581     0.18144
             34  O  2 XY      0.00166     0.00141
             35  O  2 XZ      0.00133     0.00093
             36  O  2 YZ      0.00005     0.00003
             37  O  2 XX     -0.01994     0.12242
             38  O  2 YY     -0.01226     0.09953
             39  O  2 ZZ     -0.01181     0.09727
             40  O  2 XY      0.00538     0.03443
             41  O  2 XZ      0.00481     0.03695
             42  O  2 YZ      0.00026     0.00063
             43  H  3  S      0.53813     0.48005
             44  H  3  S      0.53872     0.43410
             45  H  3  X      0.00308     0.00704
             46  H  3  Y      0.00340     0.00801
             47  H  3  Z      0.00488     0.01059
             48  H  4  S      0.53816     0.48312
             49  H  4  S      0.53867     0.43499
             50  H  4  X      0.00259     0.00633
             51  H  4  Y      0.00209     0.00588
             52  H  4  Z      0.00668     0.01384
             53  H  5  S      0.53816     0.48738
             54  H  5  S      0.53868     0.43646
             55  H  5  X      0.00159     0.00479
             56  H  5  Y      0.00782     0.01578
             57  H  5  Z      0.00195     0.00573

          ----- MULLIKEN ATOMIC OVERLAP POPULATIONS -----
          (OFF-DIAGONAL ELEMENTS NEED TO BE MULTIPLIED BY 2)

             1           2           3           4           5

    1    4.3393334
    2    0.5184242   8.4977962
    3    0.3491010  -0.0619665   0.9849994
    4    0.3491004  -0.0619578  -0.0919477   0.9849857
    5    0.3490924  -0.0619560  -0.0919669  -0.0919895   0.9850181

          TOTAL MULLIKEN AND LOWDIN ATOMIC POPULATIONS
       ATOM         MULL.POP.    CHARGE          LOW.POP.     CHARGE
    1 C             5.905051    0.094949         6.509905   -0.509905
    2 O             8.830340   -0.830340         8.656003   -0.656003
    3 H             1.088219   -0.088219         0.939791    0.060209
    4 H             1.088191   -0.088191         0.944155    0.055845
    5 H             1.088198   -0.088198         0.950146    0.049854

          -------------------------------
          BOND ORDER AND VALENCE ANALYSIS     BOND ORDER THRESHOLD=0.050
          -------------------------------

                   BOND                       BOND                       BOND
  ATOM PAIR DIST  ORDER      ATOM PAIR DIST  ORDER      ATOM PAIR DIST  ORDER
    1   2  1.309  1.436        1   3  1.133  0.924        1   4  1.133  0.924
    1   5  1.133  0.924

                       TOTAL       BONDED        FREE
      ATOM            VALENCE     VALENCE     VALENCE
    1 C                 4.208       4.208      -0.000
    2 O                 1.512       1.512      -0.000
    3 H                 0.919       0.919      -0.000
    4 H                 0.919       0.919      -0.000
    5 H                 0.919       0.919      -0.000

          -----------------------------------------
          ATOMIC SPIN DENSITY AT THE NUCLEUS (A.U.)
          -----------------------------------------
                            SPIN DENS    ALPHA DENS     BETA DENS
    1  C            6.0     0.0000000      58.93384      58.93384
    2  O            8.0     0.0000000     146.09436     146.09436
    3  H            1.0     0.0000000       0.21643       0.21643
    4  H            1.0     0.0000000       0.21644       0.21644
    5  H            1.0     0.0000000       0.21645       0.21645

          ---------------------
          ELECTROSTATIC MOMENTS
          ---------------------

 POINT   1           X           Y           Z (BOHR)    CHARGE
                 1.241061    0.218429   -0.320879       -1.00 (A.U.)
         DX          DY          DZ         /D/  (DEBYE)
    -1.508974   -0.265668    0.022696    1.532350
 ...... END OF PROPERTY EVALUATION ......
 STEP CPU TIME =     0.02 TOTAL CPU TIME =       10.2 (    0.2 MIN)
 TOTAL WALL CLOCK TIME=       10.2 SECONDS, CPU UTILIZATION IS  99.90%
  $VIB   
          IVIB=   0 IATOM=   0 ICOORD=   0 E=     -114.3921380526
  3.277071460E-05-8.289186036E-06 2.272685079E-05-3.438086403E-05-9.275297511E-08
 -5.192288542E-06 2.340567321E-06-2.630911233E-06-8.859760041E-06 5.849520483E-06
 -1.889743400E-05-1.862712172E-05-6.579942581E-06 2.991028503E-05 9.952319002E-06
 -1.508974205E+00-2.656680808E-01 2.269640190E-02
 ......END OF GEOMETRY SEARCH......
 STEP CPU TIME =     0.00 TOTAL CPU TIME =       10.2 (    0.2 MIN)
 TOTAL WALL CLOCK TIME=       10.2 SECONDS, CPU UTILIZATION IS  99.90%
               998312  WORDS OF DYNAMIC MEMORY USED
 EXECUTION OF GAMESS TERMINATED NORMALLY Wed Mar  9 22:48:24 2016
 DDI: 263640 bytes (0.3 MB / 0 MWords) used by master data server.

 ----------------------------------------
 CPU timing information for all processes
 ========================================
 0: 9.522 + 0.699 = 10.222
 ----------------------------------------
 ddikick.x: exited gracefully.
----- accounting info -----
Files used on the master node andre-mint were:
-rw-r--r-- 1 andrepd andrepd   497465 Mar  9 22:48 ./7_CH3O-_a.dat
-rw-r--r-- 1 andrepd andrepd      359 Mar  9 22:48 ./7_CH3O-_a.F05
-rw-r--r-- 1 andrepd andrepd 15841408 Mar  9 22:48 ./7_CH3O-_a.F08
-rw-r--r-- 1 andrepd andrepd  2061360 Mar  9 22:48 ./7_CH3O-_a.F10
-rw-r--r-- 1 andrepd andrepd      359 Mar  9 22:48 ./7_CH3O-_a.inp
-rw-r--r-- 1 andrepd andrepd   258886 Mar  9 22:48 ./7_CH3O-_a.out
Qua Mar  9 22:48:27 WET 2016
0.0u 0.0s 0:13.27 0.3% 0+0k 0+8io 0pf+0w
