----- GAMESS execution script 'rungms' -----
This job is running on host andre-mint
under operating system Linux at Qua Mar 9 22:01:49 WET 2016
Available scratch disk space (Kbyte units) at beginning of the job is
Filesystem     1K-blocks     Used Available Use% Mounted on
/dev/sda5       72784020 71000156    285900 100% /home
GAMESS temporary binary files will be written to .
GAMESS supplementary output files will be written to .
Copying input file 7b.inp to your run's scratch directory...

 Distributed Data Interface kickoff program.
 Initiating 1 compute processes on 1 nodes to run the following command:
 /home/andrepd/Development/gamess/gamess//gamess.69.x 7b 

          ******************************************************
          *         GAMESS VERSION =  5 DEC 2014 (R1)          *
          *             FROM IOWA STATE UNIVERSITY             *
          * M.W.SCHMIDT, K.K.BALDRIDGE, J.A.BOATZ, S.T.ELBERT, *
          *   M.S.GORDON, J.H.JENSEN, S.KOSEKI, N.MATSUNAGA,   *
          *          K.A.NGUYEN, S.J.SU, T.L.WINDUS,           *
          *       TOGETHER WITH M.DUPUIS, J.A.MONTGOMERY       *
          *         J.COMPUT.CHEM.  14, 1347-1363(1993)        *
          **************** 64 BIT LINUX VERSION ****************

  SINCE 1993, STUDENTS AND POSTDOCS WORKING AT IOWA STATE UNIVERSITY
  AND ALSO IN THEIR VARIOUS JOBS AFTER LEAVING ISU HAVE MADE IMPORTANT
  CONTRIBUTIONS TO THE CODE:
     IVANA ADAMOVIC, CHRISTINE AIKENS, YURI ALEXEEV, POOJA ARORA,
     ANDREY ASADCHEV, ROB BELL, PRADIPTA BANDYOPADHYAY, JONATHAN BENTZ,
     BRETT BODE, KURT BRORSEN, CALEB CARLIN, GALINA CHABAN, WEI CHEN,
     CHEOL HO CHOI, PAUL DAY, ALBERT DEFUSCO, NUWAN DESILVA, TIM DUDLEY,
     DMITRI FEDOROV, GRAHAM FLETCHER, MARK FREITAG, KURT GLAESEMANN,
     DAN KEMP, GRANT MERRILL, NORIYUKI MINEZAWA, JONATHAN MULLIN,
     TAKESHI NAGATA, SEAN NEDD, HEATHER NETZLOFF, BOSILJKA NJEGIC, RYAN OLSON,
     MIKE PAK, SPENCER PRUITT, LUKE ROSKOP, JIM SHOEMAKER, LYUDMILA SLIPCHENKO,
     TONY SMITH, SAROM SOK, JIE SONG, TETSUYA TAKETSUGU, SIMON WEBB,
     PENG XU, SOOHAENG YOO, FEDERICO ZAHARIEV

  ADDITIONAL CODE HAS BEEN PROVIDED BY COLLABORATORS IN OTHER GROUPS:
     IOWA STATE UNIVERSITY:
          JOE IVANIC, AARON WEST, LAIMUTIS BYTAUTAS, KLAUS RUEDENBERG
     UNIVERSITY OF TOKYO: KIMIHIKO HIRAO, TAKAHITO NAKAJIMA,
          TAKAO TSUNEDA, MUNEAKI KAMIYA, SUSUMU YANAGISAWA,
          KIYOSHI YAGI, MAHITO CHIBA, SEIKEN TOKURA, NAOAKI KAWAKAMI
     UNIVERSITY OF AARHUS: FRANK JENSEN
     UNIVERSITY OF IOWA: VISVALDAS KAIRYS, HUI LI
     NATIONAL INST. OF STANDARDS AND TECHNOLOGY: WALT STEVENS, DAVID GARMER
     UNIVERSITY OF PISA: BENEDETTA MENNUCCI, JACOPO TOMASI
     UNIVERSITY OF MEMPHIS: HENRY KURTZ, PRAKASHAN KORAMBATH
     UNIVERSITY OF ALBERTA: TOBY ZENG, MARIUSZ KLOBUKOWSKI
     UNIVERSITY OF NEW ENGLAND: MARK SPACKMAN
     MIE UNIVERSITY: HIROAKI UMEDA
     NAT. INST. OF ADVANCED INDUSTRIAL SCIENCE AND TECHNOLOGY: KAZUO KITAURA
     MICHIGAN STATE UNIVERSITY:
          KAROL KOWALSKI, MARTA WLOCH, JEFFREY GOUR, JESSE LUTZ,
          WEI LI, PIOTR PIECUCH
     UNIVERSITY OF SILESIA: MONIKA MUSIAL, STANISLAW KUCHARSKI
     FACULTES UNIVERSITAIRES NOTRE-DAME DE LA PAIX:
          OLIVIER QUINET, BENOIT CHAMPAGNE
     UNIVERSITY OF CALIFORNIA - SANTA BARBARA: BERNARD KIRTMAN
     INSTITUTE FOR MOLECULAR SCIENCE:
          KAZUYA ISHIMURA, MICHIO KATOUDA, AND SHIGERU NAGASE
     UNIVERSITY OF NOTRE DAME: ANNA POMOGAEVA, DAN CHIPMAN
     KYUSHU UNIVERSITY:
          HARUYUKI NAKANO,
          FENG LONG GU, JACEK KORCHOWIEC, MARCIN MAKOWSKI, AND YURIKO AOKI,
          HIROTOSHI MORI AND EISAKU MIYOSHI
     PENNSYLVANIA STATE UNIVERSITY:
          TZVETELIN IORDANOV, CHET SWALINA, JONATHAN SKONE,
          SHARON HAMMES-SCHIFFER
     WASEDA UNIVERSITY:
          MASATO KOBAYASHI, TOMOKO AKAMA, TSUGUKI TOUMA,
          TAKESHI YOSHIKAWA, YASUHIRO IKABATA, HIROMI NAKAI
     NANJING UNIVERSITY: SHUHUA LI
     UNIVERSITY OF NEBRASKA:
          PEIFENG SU, DEJUN SI, NANDUN THELLAMUREGE, YALI WANG, HUI LI
     UNIVERSITY OF ZURICH: ROBERTO PEVERATI, KIM BALDRIDGE
     N. COPERNICUS UNIVERSITY AND JACKSON STATE UNIVERSITY:
          MARIA BARYSZ
     UNIVERSITY OF COPENHAGEN: CASPER STEINMANN
     TOKYO INSTITUTE OF TECHNOLOGY: HIROYA NAKATA
     NAGOYA UNIVERSITY: YOSHIO NISHIMOTO, STEPHAN IRLE

 EXECUTION OF GAMESS BEGUN Wed Mar  9 22:01:49 2016

            ECHO OF THE FIRST FEW INPUT CARDS -
 INPUT CARD>!   File created by MacMolPlt 7.6.2                                             
 INPUT CARD> $CONTRL SCFTYP=UHF RUNTYP=OPTIMIZE MAXIT=200 MULT=1 $END                       
 INPUT CARD> $BASIS GBASIS=N311 NGAUSS=6 NDFUNC=2 NPFUNC=1 DIFFSP=.TRUE. DIFFS=.TRUE. $END  
 INPUT CARD>! $SCF DIRSCF=.TRUE. $END                                                       
 INPUT CARD> $DATA                                                                          
 INPUT CARD>CH3OH                                                                           
 INPUT CARD>C1                                                                              
 INPUT CARD>C  6.0  0.00  0.00  0.00                                                        
 INPUT CARD>O  8.0  1.00  0.00  0.20                                                        
 INPUT CARD>H  1.0  2.00  0.00  1.00                                                        
 INPUT CARD>H  1.0  -1.00  0.00  -1.00                                                      
 INPUT CARD>H  1.0  0.00  1.00  1.00                                                        
 INPUT CARD>H  1.0  0.00  -1.00  -1.00                                                      
 INPUT CARD> $END                                                                           
    1000000 WORDS OF MEMORY AVAILABLE

     BASIS OPTIONS
     -------------
     GBASIS=N311         IGAUSS=       6      POLAR=POPN311 
     NDFUNC=       2     NFFUNC=       0     DIFFSP=       T
     NPFUNC=       1      DIFFS=       T     BASNAM=        
     SPLIT2=     2.00000000     0.50000000


     RUN TITLE
     ---------
 CH3OH                                                                           

 THE POINT GROUP OF THE MOLECULE IS C1      
 THE ORDER OF THE PRINCIPAL AXIS IS     0

 ATOM      ATOMIC                      COORDINATES (BOHR)
           CHARGE         X                   Y                   Z
 C           6.0     0.0000000000        0.0000000000        0.0000000000
 O           8.0     1.8897259877        0.0000000000        0.3779451975
 H           1.0     3.7794519754        0.0000000000        1.8897259877
 H           1.0    -1.8897259877        0.0000000000       -1.8897259877
 H           1.0     0.0000000000        1.8897259877        1.8897259877
 H           1.0     0.0000000000       -1.8897259877       -1.8897259877

          INTERNUCLEAR DISTANCES (ANGS.)
          ------------------------------

                1 C          2 O          3 H          4 H          5 H     

   1 C       0.0000000    1.0198039 *  2.2360680 *  1.4142136 *  1.4142136 *
   2 O       1.0198039 *  0.0000000    1.2806248 *  2.3323808 *  1.6248077 *
   3 H       2.2360680 *  1.2806248 *  0.0000000    3.6055513    2.2360680 *
   4 H       1.4142136 *  2.3323808 *  3.6055513    0.0000000    2.4494897 *
   5 H       1.4142136 *  1.6248077 *  2.2360680 *  2.4494897 *  0.0000000  
   6 H       1.4142136 *  1.8547237 *  3.0000000 *  1.4142136 *  2.8284271 *

                6 H     

   1 C       1.4142136 *
   2 O       1.8547237 *
   3 H       3.0000000 *
   4 H       1.4142136 *
   5 H       2.8284271 *
   6 H       0.0000000  

  * ... LESS THAN  3.000


     ATOMIC BASIS SET
     ----------------
 THE CONTRACTED PRIMITIVE FUNCTIONS HAVE BEEN UNNORMALIZED
 THE CONTRACTED BASIS FUNCTIONS ARE NOW NORMALIZED TO UNITY

  SHELL TYPE  PRIMITIVE        EXPONENT          CONTRACTION COEFFICIENT(S)

 C         

      1   S       1          4563.2400000    0.001966650249
      1   S       2           682.0240000    0.015230601932
      1   S       3           154.9730000    0.076126909656
      1   S       4            44.4553000    0.260801033080
      1   S       5            13.0290000    0.616462078191
      1   S       6             1.8277300    0.221006028032

      2   L       7            20.9642000    0.114660080729    0.040248692673
      2   L       8             4.8033100    0.919999647749    0.237593956746
      2   L       9             1.4593300   -0.003030682134    0.815853851473

      3   L      10             0.4834560    1.000000000000    1.000000000000

      4   L      11             0.1455850    1.000000000000    1.000000000000

      5   L      12             0.0438000    1.000000000000    1.000000000000

      6   D      13             1.2520000    1.000000000000

      7   D      14             0.3130000    1.000000000000

 O         

      8   S      15          8588.5000000    0.001895150083
      8   S      16          1297.2300000    0.014385900631
      8   S      17           299.2960000    0.070732003103
      8   S      18            87.3771000    0.240001010530
      8   S      19            25.6789000    0.594797026097
      8   S      20             3.7400400    0.280802012320

      9   L      21            42.1175000    0.113889012440    0.036511397380
      9   L      22             9.6283700    0.920811100576    0.237152982984
      9   L      23             2.8533200   -0.003274470358    0.819701941186

     10   L      24             0.9056610    1.000000000000    1.000000000000

     11   L      25             0.2556110    1.000000000000    1.000000000000

     12   L      26             0.0845000    1.000000000000    1.000000000000

     13   D      27             2.5840000    1.000000000000

     14   D      28             0.6460000    1.000000000000

 H         

     15   S      29            33.8650000    0.025493814541
     15   S      30             5.0947900    0.190373108582
     15   S      31             1.1587900    0.852161486043

     16   S      32             0.3258400    1.000000000000

     17   S      33             0.1027410    1.000000000000

     18   S      34             0.0360000    1.000000000000

     19   P      35             0.7500000    1.000000000000

 H         

     20   S      36            33.8650000    0.025493814541
     20   S      37             5.0947900    0.190373108582
     20   S      38             1.1587900    0.852161486043

     21   S      39             0.3258400    1.000000000000

     22   S      40             0.1027410    1.000000000000

     23   S      41             0.0360000    1.000000000000

     24   P      42             0.7500000    1.000000000000

 H         

     25   S      43            33.8650000    0.025493814541
     25   S      44             5.0947900    0.190373108582
     25   S      45             1.1587900    0.852161486043

     26   S      46             0.3258400    1.000000000000

     27   S      47             0.1027410    1.000000000000

     28   S      48             0.0360000    1.000000000000

     29   P      49             0.7500000    1.000000000000

 H         

     30   S      50            33.8650000    0.025493814541
     30   S      51             5.0947900    0.190373108582
     30   S      52             1.1587900    0.852161486043

     31   S      53             0.3258400    1.000000000000

     32   S      54             0.1027410    1.000000000000

     33   S      55             0.0360000    1.000000000000

     34   P      56             0.7500000    1.000000000000

 TOTAL NUMBER OF BASIS SET SHELLS             =   34
 NUMBER OF CARTESIAN GAUSSIAN BASIS FUNCTIONS =   86
 NUMBER OF ELECTRONS                          =   18
 CHARGE OF MOLECULE                           =    0
 SPIN MULTIPLICITY                            =    1
 NUMBER OF OCCUPIED ORBITALS (ALPHA)          =    9
 NUMBER OF OCCUPIED ORBITALS (BETA )          =    9
 TOTAL NUMBER OF ATOMS                        =    6
 THE NUCLEAR REPULSION ENERGY IS       44.4084353222

     $CONTRL OPTIONS
     ---------------
 SCFTYP=UHF          RUNTYP=OPTIMIZE     EXETYP=RUN     
 MPLEVL=       0     CITYP =NONE         CCTYP =NONE         VBTYP =NONE    
 DFTTYP=NONE         TDDFT =NONE    
 MULT  =       1     ICHARG=       0     NZVAR =       0     COORD =UNIQUE  
 PP    =NONE         RELWFN=NONE         LOCAL =NONE         NUMGRD=       F
 ISPHER=      -1     NOSYM =       0     MAXIT =     200     UNITS =ANGS    
 PLTORB=       F     MOLPLT=       F     AIMPAC=       F     FRIEND=        
 NPRINT=       7     IREST =       0     GEOM  =INPUT   
 NORMF =       0     NORMP =       0     ITOL  =      20     ICUT  =       9
 INTTYP=BEST         GRDTYP=BEST         QMTTOL= 1.0E-06

     $SYSTEM OPTIONS
     ---------------
  REPLICATED MEMORY=     1000000 WORDS (ON EVERY NODE).
 DISTRIBUTED MEMDDI=           0 MILLION WORDS IN AGGREGATE,
 MEMDDI DISTRIBUTED OVER   1 PROCESSORS IS           0 WORDS/PROCESSOR.
 TOTAL MEMORY REQUESTED ON EACH PROCESSOR=     1000000 WORDS.
 TIMLIM=      525600.00 MINUTES, OR     365.0 DAYS.
 PARALL= F  BALTYP=  DLB     KDIAG=    0  COREFL= F
 MXSEQ2=     300 MXSEQ3=     150  mem10=         0

          ----------------
          PROPERTIES INPUT
          ----------------

     MOMENTS            FIELD           POTENTIAL          DENSITY
 IEMOM =       1   IEFLD =       0   IEPOT =       0   IEDEN =       0
 WHERE =COMASS     WHERE =NUCLEI     WHERE =NUCLEI     WHERE =NUCLEI  
 OUTPUT=BOTH       OUTPUT=BOTH       OUTPUT=BOTH       OUTPUT=BOTH    
 IEMINT=       0   IEFINT=       0                     IEDINT=       0
                                                       MORB  =       0
          EXTRAPOLATION IN EFFECT
          SOSCF IN EFFECT
          DIIS or SOSCF will be reset if energy rises
 ORBITAL PRINTING OPTION: NPREO=     1    86     2     1

     -------------------------------
     INTEGRAL TRANSFORMATION OPTIONS
     -------------------------------
     NWORD  =            0
     CUTOFF = 1.0E-09     MPTRAN =       0
     DIRTRF =       F     AOINTS =DUP     

          ----------------------
          INTEGRAL INPUT OPTIONS
          ----------------------
 NOPK  =       1 NORDER=       0 SCHWRZ=       T

     ------------------------------------------
     THE POINT GROUP IS C1 , NAXIS= 0, ORDER= 1
     ------------------------------------------

     DIMENSIONS OF THE SYMMETRY SUBSPACES ARE
 A   =   86

 ..... DONE SETTING UP THE RUN .....
 STEP CPU TIME =     0.00 TOTAL CPU TIME =        0.0 (    0.0 MIN)
 TOTAL WALL CLOCK TIME=        0.1 SECONDS, CPU UTILIZATION IS   0.00%


          -----------------------------
          STATIONARY POINT LOCATION RUN
          -----------------------------

 OBTAINING INITIAL HESSIAN, HESS=GUESS   
 CARTESIAN COORDINATE OPTIMIZATION USING BADGER'S RULE FORCE CONSTANT GUESS

          PARAMETERS CONTROLLING GEOMETRY SEARCH ARE
          METHOD =QA                  UPHESS =BFGS    
          NNEG   =         0          NFRZ   =         0
          NSTEP  =        50          IFOLOW =         1
          HESS   =GUESS               RESTAR =         F
          IHREP  =         0          HSSEND =         F
          NPRT   =         0          NPUN   =         0
          OPTTOL = 1.000E-04          RMIN   = 1.500E-03
          RMAX   = 1.000E-01          RLIM   = 7.000E-02
          DXMAX  = 3.000E-01          PURIFY =         F
          MOVIE  =         F          TRUPD  =         T
          TRMAX  = 5.000E-01          TRMIN  = 5.000E-02
          ITBMAT =         5          STPT   =         F
          STSTEP = 1.000E-02          PROJCT=          T

 BEGINNING GEOMETRY SEARCH POINT NSERCH=   0 ...

 COORDINATES OF ALL ATOMS ARE (ANGS)
   ATOM   CHARGE       X              Y              Z
 ------------------------------------------------------------
 C           6.0   0.0000000000   0.0000000000   0.0000000000
 O           8.0   1.0000000000   0.0000000000   0.2000000000
 H           1.0   2.0000000000   0.0000000000   1.0000000000
 H           1.0  -1.0000000000   0.0000000000  -1.0000000000
 H           1.0   0.0000000000   1.0000000000   1.0000000000
 H           1.0   0.0000000000  -1.0000000000  -1.0000000000

          ********************
          1 ELECTRON INTEGRALS
          ********************
 ...... END OF ONE-ELECTRON INTEGRALS ......
 STEP CPU TIME =     0.01 TOTAL CPU TIME =        0.0 (    0.0 MIN)
 TOTAL WALL CLOCK TIME=        0.1 SECONDS, CPU UTILIZATION IS  16.67%

          -------------
          GUESS OPTIONS
          -------------
          GUESS =HUCKEL            NORB  =       0          NORDER=       0
          MIX   =       F          PRTMO =       F          PUNMO =       F
          TOLZ  = 1.0E-08          TOLE  = 1.0E-05
          SYMDEN=       F          PURIFY=       F

 INITIAL GUESS ORBITALS GENERATED BY HUCKEL   ROUTINE.
 HUCKEL GUESS REQUIRES     58632 WORDS.

 SYMMETRIES FOR INITIAL GUESS ORBITALS FOLLOW.  ALPHA SET(S).
     9 ORBITALS ARE OCCUPIED (    2 CORE ORBITALS).
     3=A        4=A        5=A        6=A        7=A        8=A        9=A   
    10=A       11=A       12=A       13=A       14=A       15=A       16=A   
    17=A       18=A       19=A   

 SYMMETRIES FOR INITIAL GUESS ORBITALS FOLLOW.   BETA SET(S).
     9 ORBITALS ARE OCCUPIED (    2 CORE ORBITALS).
     3=A        4=A        5=A        6=A        7=A        8=A        9=A   
    10=A       11=A       12=A       13=A       14=A       15=A       16=A   
    17=A       18=A       19=A   
 ...... END OF INITIAL ORBITAL SELECTION ......
 STEP CPU TIME =     0.00 TOTAL CPU TIME =        0.0 (    0.0 MIN)
 TOTAL WALL CLOCK TIME=        0.1 SECONDS, CPU UTILIZATION IS  14.29%

                    ----------------------
                    AO INTEGRAL TECHNOLOGY
                    ----------------------
     S,P,L SHELL ROTATED AXIS INTEGRALS, REPROGRAMMED BY
        KAZUYA ISHIMURA (IMS) AND JOSE SIERRA (SYNSTAR).
     S,P,D,L SHELL ROTATED AXIS INTEGRALS PROGRAMMED BY
        KAZUYA ISHIMURA (INSTITUTE FOR MOLECULAR SCIENCE).
     S,P,D,F,G SHELL TO TOTAL QUARTET ANGULAR MOMENTUM SUM 5,
        ERIC PROGRAM BY GRAHAM FLETCHER (ELORET AND NASA ADVANCED
        SUPERCOMPUTING DIVISION, AMES RESEARCH CENTER).
     S,P,D,F,G,L SHELL GENERAL RYS QUADRATURE PROGRAMMED BY
        MICHEL DUPUIS (PACIFIC NORTHWEST NATIONAL LABORATORY).

          --------------------
          2 ELECTRON INTEGRALS
          --------------------

 THE -PK- OPTION IS OFF, THE INTEGRALS ARE NOT IN SUPERMATRIX FORM.
 STORING   15000 INTEGRALS/RECORD ON DISK, USING 12 BYTES/INTEGRAL.
 TWO ELECTRON INTEGRAL EVALUATION REQUIRES   90991 WORDS OF MEMORY.
 SCHWARZ INEQUALITY OVERHEAD:      3741 INTEGRALS, T=        0.01
 II,JST,KST,LST =  1  1  1  1 NREC =         1 INTLOC =    1
 II,JST,KST,LST =  2  1  1  1 NREC =         1 INTLOC =    2
 II,JST,KST,LST =  3  1  1  1 NREC =         1 INTLOC =   34
 II,JST,KST,LST =  4  1  1  1 NREC =         1 INTLOC =  214
 II,JST,KST,LST =  5  1  1  1 NREC =         1 INTLOC =  776
 II,JST,KST,LST =  6  1  1  1 NREC =         1 INTLOC = 2074
 II,JST,KST,LST =  7  1  1  1 NREC =         1 INTLOC = 5929
 II,JST,KST,LST =  8  1  1  1 NREC =         1 INTLOC =14065
 II,JST,KST,LST =  9  1  1  1 NREC =         2 INTLOC = 6572
 II,JST,KST,LST = 10  1  1  1 NREC =         4 INTLOC =13107
 II,JST,KST,LST = 11  1  1  1 NREC =         8 INTLOC = 4533
 II,JST,KST,LST = 12  1  1  1 NREC =        12 INTLOC =14023
 II,JST,KST,LST = 13  1  1  1 NREC =        18 INTLOC =14871
 II,JST,KST,LST = 14  1  1  1 NREC =        30 INTLOC =14598
 II,JST,KST,LST = 15  1  1  1 NREC =        47 INTLOC = 4584
 II,JST,KST,LST = 16  1  1  1 NREC =        51 INTLOC =  452
 II,JST,KST,LST = 17  1  1  1 NREC =        55 INTLOC =  151
 II,JST,KST,LST = 18  1  1  1 NREC =        59 INTLOC = 3217
 II,JST,KST,LST = 19  1  1  1 NREC =        63 INTLOC = 9786
 II,JST,KST,LST = 20  1  1  1 NREC =        77 INTLOC = 4118
 II,JST,KST,LST = 21  1  1  1 NREC =        82 INTLOC =  658
 II,JST,KST,LST = 22  1  1  1 NREC =        87 INTLOC = 9584
 II,JST,KST,LST = 23  1  1  1 NREC =        93 INTLOC = 7915
 II,JST,KST,LST = 24  1  1  1 NREC =        99 INTLOC =10673
 II,JST,KST,LST = 25  1  1  1 NREC =       117 INTLOC =11004
 II,JST,KST,LST = 26  1  1  1 NREC =       130 INTLOC = 1764
 II,JST,KST,LST = 27  1  1  1 NREC =       143 INTLOC = 1230
 II,JST,KST,LST = 28  1  1  1 NREC =       156 INTLOC = 8449
 II,JST,KST,LST = 29  1  1  1 NREC =       170 INTLOC = 8351
 II,JST,KST,LST = 30  1  1  1 NREC =       215 INTLOC = 6820
 II,JST,KST,LST = 31  1  1  1 NREC =       231 INTLOC = 2968
 II,JST,KST,LST = 32  1  1  1 NREC =       247 INTLOC =14129
 II,JST,KST,LST = 33  1  1  1 NREC =       265 INTLOC = 4650
 II,JST,KST,LST = 34  1  1  1 NREC =       283 INTLOC = 4268
 SCHWARZ INEQUALITY TEST SKIPPED        2475 INTEGRAL BLOCKS.
 TOTAL NUMBER OF NONZERO TWO-ELECTRON INTEGRALS =             5086387
        340 INTEGRAL RECORDS WERE STORED ON DISK FILE  8.
  ...... END OF TWO-ELECTRON INTEGRALS .....
 STEP CPU TIME =     0.35 TOTAL CPU TIME =        0.4 (    0.0 MIN)
 TOTAL WALL CLOCK TIME=        0.4 SECONDS, CPU UTILIZATION IS  87.80%

          ---------------------------
                  UHF SCF CALCULATION
          ---------------------------

     NUCLEAR ENERGY =        44.4084353222
     MAXIT =200     NPUNCH=  2     MULT=  1
     EXTRAP=T  DAMP=F  SHIFT=F  RSTRCT=F  DIIS=F  SOSCF=T
     DENSITY MATRIX CONV=  1.00E-05
     SOSCF WILL OPTIMIZE     693 ALPHA AND     693 BETA ROTATION ANGLES.
     SOGTOL= 2.500E-01
     MEMORY REQUIRED FOR UHF/ROHF ITERS=    115038 WORDS.

 ITER EX      TOTAL ENERGY        E CHANGE  DENSITY CHANGE    ORB. GRAD 
   1  0     -113.6771149130  -113.6771149130   0.355531583   0.000000000
          ---------------START SECOND ORDER SCF---------------
   2  1     -114.3155285576    -0.6384136446   0.249168882   0.087928769
   3  2     -114.3898955930    -0.0743670353   0.083438744   0.075629042
   4  3     -114.4636966994    -0.0738011065   0.029845909   0.009844990
   5  4     -114.4675361780    -0.0038394785   0.034148974   0.004888068
   6  5     -114.4693204536    -0.0017842756   0.042207003   0.004102019
   7  6     -114.4703955057    -0.0010750521   0.076168151   0.003319571
   8  7     -114.4715625052    -0.0011669995   0.034668630   0.002887908
   9  8     -114.4721492207    -0.0005867155   0.017122094   0.001996191
  10  9     -114.4724339812    -0.0002847606   0.008745430   0.001709644
  11 10     -114.4725365913    -0.0001026101   0.007071300   0.001224903
  12 11     -114.4725956047    -0.0000590133   0.002866337   0.000477073
  13 12     -114.4726090530    -0.0000134483   0.001733528   0.000166515
  14 13     -114.4726120409    -0.0000029879   0.000700391   0.000099122
  15 14     -114.4726127864    -0.0000007455   0.000668182   0.000067408
  16 15     -114.4726130659    -0.0000002795   0.000355064   0.000031403
  17 16     -114.4726131450    -0.0000000791   0.000086410   0.000014562
  18 17     -114.4726131577    -0.0000000127   0.000052921   0.000006831
  19 18     -114.4726131612    -0.0000000035   0.000024349   0.000003021
  20 19     -114.4726131617    -0.0000000005   0.000008967   0.000001248
  21 20     -114.4726131618    -0.0000000001   0.000003241   0.000000489

          -----------------
          DENSITY CONVERGED
          -----------------
     TIME TO FORM FOCK OPERATORS=       2.1 SECONDS (       0.1 SEC/ITER)
     TIME TO SOLVE SCF EQUATIONS=       0.1 SECONDS (       0.0 SEC/ITER)

 FINAL UHF ENERGY IS     -114.4726131618 AFTER  21 ITERATIONS

          --------------------
          SPIN SZ   =    0.000
          S-SQUARED =   -0.000
          --------------------

  ----- ALPHA SET ----- 

          ------------
          EIGENVECTORS
          ------------

                      1          2          3          4          5
                  -20.6715   -11.4074    -1.6453    -0.9408    -0.8136
                     A          A          A          A          A   
    1  C  1  S    0.000025   0.563465  -0.069369  -0.061102   0.000566
    2  C  1  S   -0.000071   0.465659  -0.106420  -0.098314   0.001451
    3  C  1  X    0.000203   0.002294   0.120345   0.072323   0.005018
    4  C  1  Y   -0.000013  -0.000672   0.000058  -0.001001   0.090769
    5  C  1  Z    0.000039   0.000288   0.024921  -0.000421   0.108451
    6  C  1  S    0.000532   0.005773   0.222405   0.310291  -0.001424
    7  C  1  X    0.000340   0.000505   0.114420   0.111252   0.013166
    8  C  1  Y    0.000004   0.000439  -0.000735  -0.004299   0.135290
    9  C  1  Z    0.000072   0.000232   0.024952  -0.003279   0.159649
   10  C  1  S   -0.000149   0.006077   0.105081   0.116445  -0.045929
   11  C  1  X   -0.000260   0.000133   0.014709   0.031826  -0.010405
   12  C  1  Y   -0.000052  -0.000162  -0.000085  -0.000146   0.038230
   13  C  1  Z   -0.000061  -0.000024   0.001558   0.007807   0.051910
   14  C  1  S    0.000430  -0.000366   0.005749   0.019275  -0.062723
   15  C  1  X    0.000348   0.000346   0.010214   0.000591   0.008481
   16  C  1  Y    0.000028  -0.000055  -0.000955   0.001061   0.017540
   17  C  1  Z    0.000193   0.000099   0.005649  -0.001641   0.034198
   18  C  1 XX    0.000020   0.000204   0.027287   0.023692  -0.001038
   19  C  1 YY   -0.000078  -0.001734  -0.011844  -0.005730  -0.001827
   20  C  1 ZZ   -0.000074  -0.001663  -0.009915  -0.004864   0.005167
   21  C  1 XY    0.000023   0.000007   0.000138   0.000374   0.018114
   22  C  1 XZ    0.000040   0.000442   0.010435   0.003515   0.019374
   23  C  1 YZ   -0.000013   0.000013   0.000133   0.001864   0.002655
   24  C  1 XX   -0.000041  -0.002206  -0.001665   0.031237   0.001381
   25  C  1 YY   -0.000118  -0.001785  -0.020534   0.005570  -0.010566
   26  C  1 ZZ   -0.000127  -0.001903  -0.021550   0.004943  -0.002158
   27  C  1 XY    0.000003  -0.000104  -0.000252  -0.000360   0.007768
   28  C  1 XZ    0.000027  -0.000242   0.002577   0.003284   0.011957
   29  C  1 YZ   -0.000008   0.000067  -0.000636   0.005970   0.000581
   30  O  2  S    0.551287  -0.000653  -0.109660   0.044722   0.010852
   31  O  2  S    0.471075  -0.000755  -0.173409   0.072494   0.017662
   32  O  2  X   -0.000967  -0.000857  -0.086879  -0.206462  -0.078071
   33  O  2  Y    0.000605   0.000049   0.002308   0.008587   0.142898
   34  O  2  Z    0.000237  -0.000130  -0.011487  -0.070170   0.157202
   35  O  2  S    0.006737   0.000893   0.500028  -0.247479  -0.069558
   36  O  2  X    0.000091  -0.000476  -0.121674  -0.292377  -0.108456
   37  O  2  Y   -0.000307   0.000064   0.006062   0.012654   0.223412
   38  O  2  Z   -0.000169  -0.000094  -0.012783  -0.109403   0.249178
   39  O  2  S    0.003787   0.000495   0.219572  -0.301025  -0.045196
   40  O  2  X   -0.000038   0.000778  -0.011663  -0.138210  -0.087335
   41  O  2  Y    0.000180   0.000008   0.004045   0.006477   0.169842
   42  O  2  Z    0.000094   0.000360   0.010074  -0.063716   0.185304
   43  O  2  S   -0.001213  -0.001674  -0.043668  -0.073409   0.022386
   44  O  2  X   -0.000138   0.000041   0.002012  -0.011062  -0.030378
   45  O  2  Y   -0.000076   0.000034  -0.000628  -0.004428  -0.003742
   46  O  2  Z   -0.000207  -0.000119  -0.005629  -0.008369  -0.025500
   47  O  2 XX   -0.000183   0.000444   0.020580   0.005664   0.003437
   48  O  2 YY   -0.000676  -0.000102   0.002897  -0.006683  -0.001605
   49  O  2 ZZ   -0.000662  -0.000097   0.003449  -0.007881  -0.004127
   50  O  2 XY   -0.000063  -0.000016  -0.000567  -0.000950  -0.007279
   51  O  2 XZ    0.000049   0.000118   0.003590   0.001816  -0.006540
   52  O  2 YZ    0.000057  -0.000018  -0.000106  -0.000517  -0.000477
   53  O  2 XX   -0.001630  -0.000587   0.037015  -0.038199  -0.011190
   54  O  2 YY   -0.001410  -0.000149   0.012636  -0.021566  -0.006531
   55  O  2 ZZ   -0.001446  -0.000161   0.016910  -0.030943  -0.011824
   56  O  2 XY   -0.000044   0.000035  -0.002202  -0.003175  -0.016191
   57  O  2 XZ   -0.000124  -0.000109   0.008099  -0.013590  -0.020716
   58  O  2 YZ    0.000042  -0.000059  -0.001453  -0.002592   0.005341
   59  H  3  S    0.000080   0.000010   0.018329  -0.101970   0.015258
   60  H  3  S    0.000038  -0.000292   0.011832  -0.152994   0.033367
   61  H  3  S    0.000252   0.000342   0.009255   0.002403   0.025153
   62  H  3  S   -0.000064  -0.000067  -0.003002  -0.003343   0.001672
   63  H  3  X   -0.000100   0.000007  -0.004966   0.022977  -0.011413
   64  H  3  Y    0.000003   0.000001   0.000499  -0.000296   0.006891
   65  H  3  Z   -0.000085   0.000011  -0.001524   0.020618   0.000271
   66  H  4  S    0.000007   0.000148   0.003462   0.019235  -0.025177
   67  H  4  S   -0.000030   0.000326   0.005084   0.034198  -0.046735
   68  H  4  S   -0.000005  -0.000235  -0.002345   0.003569   0.011041
   69  H  4  S    0.000255   0.000373   0.009521  -0.005431   0.022779
   70  H  4  X    0.000008   0.000063   0.002584   0.006176  -0.005667
   71  H  4  Y    0.000004   0.000016   0.000072  -0.000187   0.003796
   72  H  4  Z   -0.000004   0.000123   0.001231   0.003626  -0.002777
   73  H  5  S   -0.000018   0.000108   0.012476   0.012224   0.057989
   74  H  5  S   -0.000062   0.000013   0.011106   0.014412   0.081023
   75  H  5  S    0.000110  -0.000020   0.000426   0.004972   0.025179
   76  H  5  S   -0.000157   0.000136  -0.000596  -0.000196  -0.008360
   77  H  5  X   -0.000029   0.000010   0.001172  -0.000890   0.002592
   78  H  5  Y    0.000031  -0.000006  -0.002646  -0.002591  -0.008040
   79  H  5  Z    0.000020   0.000035  -0.002318  -0.002353  -0.006978
   80  H  6  S   -0.000004   0.000100   0.008386   0.023749  -0.052860
   81  H  6  S   -0.000013   0.000231   0.009514   0.034648  -0.081682
   82  H  6  S    0.000015  -0.000230  -0.002102   0.007516  -0.015940
   83  H  6  S   -0.000127   0.000055  -0.002320   0.001243   0.017346
   84  H  6  X   -0.000005  -0.000014  -0.000192  -0.001465   0.001397
   85  H  6  Y   -0.000001   0.000091   0.002163   0.003617  -0.006354
   86  H  6  Z   -0.000007   0.000117   0.002064   0.003146  -0.004887

                      6          7          8          9         10
                   -0.7410    -0.7113    -0.3726    -0.2282    -0.0265
                     A          A          A          A          A   
    1  C  1  S   -0.005343  -0.054887  -0.012048   0.010372  -0.015131
    2  C  1  S   -0.008992  -0.089478  -0.020689   0.017568  -0.025034
    3  C  1  X   -0.033014  -0.162438  -0.073082   0.016593   0.045823
    4  C  1  Y    0.110756  -0.013658   0.051880  -0.066031   0.022703
    5  C  1  Z   -0.095840  -0.012847   0.070334   0.019633  -0.033402
    6  C  1  S    0.024700   0.333008   0.093053  -0.072835   0.163163
    7  C  1  X   -0.049514  -0.217664  -0.092606   0.040099   0.058168
    8  C  1  Y    0.154369  -0.020915   0.102877  -0.115561   0.042060
    9  C  1  Z   -0.134100  -0.022710   0.140112   0.041030  -0.052502
   10  C  1  S    0.045632   0.079416   0.102918  -0.058988  -0.422093
   11  C  1  X   -0.008087  -0.104678  -0.036999   0.058185  -0.024477
   12  C  1  Y    0.049351  -0.003780   0.146244  -0.192080   0.067285
   13  C  1  Z   -0.054255  -0.019990   0.209348   0.066891  -0.036106
   14  C  1  S    0.026180  -0.009645   0.070103  -0.084128  -0.542457
   15  C  1  X   -0.013336  -0.006535   0.006076   0.041769  -0.238270
   16  C  1  Y    0.007308   0.002621   0.028722  -0.097441   0.008305
   17  C  1  Z   -0.022609   0.002212   0.050420   0.007062  -0.168859
   18  C  1 XX    0.000578  -0.014697  -0.004314  -0.014581   0.011776
   19  C  1 YY    0.001683   0.012482   0.005729   0.011746  -0.003262
   20  C  1 ZZ   -0.002007   0.018595   0.000704   0.002881  -0.002958
   21  C  1 XY    0.026028  -0.003769  -0.014118   0.004538  -0.004712
   22  C  1 XZ   -0.018634   0.007725  -0.017435  -0.014580  -0.002702
   23  C  1 YZ    0.006212   0.004528  -0.000922   0.014020  -0.004002
   24  C  1 XX    0.007972   0.044121   0.022363  -0.048012   0.054193
   25  C  1 YY    0.009749   0.062731   0.025474   0.034515   0.039019
   26  C  1 ZZ    0.005568   0.085472   0.023002   0.005066   0.045726
   27  C  1 XY    0.015002  -0.002469  -0.011869   0.001562  -0.010183
   28  C  1 XZ   -0.013651   0.025860  -0.021918  -0.038589   0.002252
   29  C  1 YZ    0.004239   0.016411  -0.000522   0.055196  -0.017734
   30  O  2  S   -0.004131   0.017781  -0.000978   0.021058   0.024167
   31  O  2  S   -0.006510   0.028865  -0.001574   0.035174   0.040093
   32  O  2  X    0.076141   0.059196   0.074366   0.012155  -0.076519
   33  O  2  Y    0.187145  -0.024015  -0.120145   0.053377  -0.040962
   34  O  2  Z   -0.131658   0.089575  -0.119010  -0.036407  -0.051277
   35  O  2  S    0.027093  -0.083614   0.010014  -0.117176  -0.129108
   36  O  2  X    0.108681   0.084620   0.109982   0.023978  -0.108264
   37  O  2  Y    0.299163  -0.040042  -0.192885   0.085172  -0.066421
   38  O  2  Z   -0.213423   0.138872  -0.193273  -0.057431  -0.077752
   39  O  2  S    0.032903  -0.088129  -0.028090  -0.154319  -0.227351
   40  O  2  X    0.076546   0.047362   0.123034  -0.012249  -0.128483
   41  O  2  Y    0.241166  -0.031835  -0.219379   0.123607  -0.075058
   42  O  2  Z   -0.168164   0.095329  -0.219781  -0.071199  -0.106021
   43  O  2  S    0.009598   0.078349  -0.005502  -0.134969  -0.078111
   44  O  2  X    0.028540  -0.017815   0.041535   0.001106  -0.454619
   45  O  2  Y    0.002549  -0.003528  -0.065555   0.104082  -0.071870
   46  O  2  Z    0.017464   0.010486  -0.075318  -0.034311  -0.230721
   47  O  2 XX   -0.005478  -0.005622  -0.002852  -0.002863   0.002676
   48  O  2 YY    0.003076   0.000229   0.002040  -0.000292  -0.005253
   49  O  2 ZZ    0.003489   0.000478   0.000543  -0.000922  -0.002235
   50  O  2 XY   -0.009303   0.001581  -0.000125   0.001873  -0.000459
   51  O  2 XZ    0.005832  -0.003502  -0.003744   0.000564   0.005880
   52  O  2 YZ   -0.001846   0.001096  -0.000335   0.002234  -0.000862
   53  O  2 XX    0.003852   0.000435   0.003805  -0.006160  -0.000087
   54  O  2 YY    0.011578   0.002799   0.008724  -0.000938  -0.012520
   55  O  2 ZZ    0.006907   0.004632  -0.000793  -0.002424  -0.003500
   56  O  2 XY   -0.024670   0.005950   0.001259   0.002978   0.000190
   57  O  2 XZ    0.023305  -0.003152  -0.005170   0.000363   0.018431
   58  O  2 YZ    0.000055   0.001278  -0.004374   0.010457  -0.002336
   59  H  3  S   -0.003383   0.039859  -0.052087   0.026375   0.116994
   60  H  3  S   -0.006247   0.073922  -0.113084   0.059442   0.266637
   61  H  3  S   -0.015266   0.007178  -0.090518   0.129430   0.788799
   62  H  3  S    0.003448   0.005718  -0.019798   0.055556   0.993355
   63  H  3  X    0.008674  -0.011540   0.009928   0.006171   0.021877
   64  H  3  Y    0.009156  -0.000718  -0.008694   0.007852  -0.003624
   65  H  3  Z   -0.001285  -0.005611  -0.003474   0.003348   0.018264
   66  H  4  S    0.034056   0.098626  -0.044298  -0.109390   0.011825
   67  H  4  S    0.066294   0.149843  -0.068994  -0.224423   0.039101
   68  H  4  S    0.004566   0.045118  -0.031213  -0.329454   0.035310
   69  H  4  S   -0.020157   0.003814  -0.001426  -0.098374  -0.019659
   70  H  4  X    0.007396   0.011838  -0.007030  -0.002947   0.001443
   71  H  4  Y    0.002924  -0.001832   0.007890  -0.010069   0.005743
   72  H  4  Z    0.005334   0.012329   0.004233  -0.007469   0.001142
   73  H  5  S    0.016538   0.048734   0.121549   0.085934  -0.004139
   74  H  5  S    0.026843   0.073072   0.240897   0.164439   0.001290
   75  H  5  S    0.013659   0.032293   0.180061   0.303929  -0.004825
   76  H  5  S    0.002345  -0.003722   0.010285   0.155675   0.071351
   77  H  5  X    0.002002  -0.003377  -0.004152   0.005540   0.000102
   78  H  5  Y    0.000707  -0.006583  -0.013498  -0.000518   0.001340
   79  H  5  Z   -0.005232  -0.004895  -0.012091   0.004709  -0.000467
   80  H  6  S    0.005317   0.063205  -0.088474   0.124407  -0.047803
   81  H  6  S    0.005392   0.092283  -0.170622   0.251063  -0.093615
   82  H  6  S    0.002060   0.033668  -0.120839   0.416635  -0.222359
   83  H  6  S   -0.001036   0.002816  -0.018284   0.125529  -0.170071
   84  H  6  X   -0.000094  -0.004836   0.004185   0.003061   0.002588
   85  H  6  Y    0.003482   0.008255  -0.013547   0.002012   0.000932
   86  H  6  Z   -0.001806   0.007085  -0.007864   0.007587  -0.001323

                     11         12         13         14         15
                    0.0478     0.0658     0.0831     0.0904     0.1169
                     A          A          A          A          A   
    1  C  1  S   -0.034826   0.000398   0.000595  -0.009968   0.004677
    2  C  1  S   -0.056673   0.001409   0.001997  -0.016574   0.009978
    3  C  1  X   -0.062310   0.019278  -0.037857   0.009694   0.026646
    4  C  1  Y   -0.015093  -0.030979  -0.041449  -0.015493   0.062210
    5  C  1  Z    0.005024  -0.051229   0.032113   0.001273  -0.054569
    6  C  1  S    0.319023   0.004707   0.316682   0.081915   0.446669
    7  C  1  X   -0.065057   0.004229  -0.045006  -0.008212   0.043795
    8  C  1  Y   -0.028468  -0.059603  -0.083228  -0.042372   0.094321
    9  C  1  Z    0.021173  -0.093443   0.047468   0.011825  -0.080652
   10  C  1  S    0.315482  -0.335974  -1.588116  -0.273122  -2.151510
   11  C  1  X    0.134101  -0.108080  -0.339769  -0.071209  -0.024608
   12  C  1  Y   -0.065670   0.009891  -0.067617   0.013102   0.223091
   13  C  1  Z    0.078430  -0.103678   0.082918   0.044476  -0.158346
   14  C  1  S    2.804846   0.286873  -2.509645  -0.510569  -3.012010
   15  C  1  X   -0.573180   0.173567  -1.584705   1.274346  -1.017983
   16  C  1  Y    0.143194  -1.575523  -1.268603  -0.164564   0.479153
   17  C  1  Z   -0.129207  -1.696148  -1.161477   2.292692   0.459547
   18  C  1 XX    0.002255  -0.001218   0.006222   0.004312   0.007026
   19  C  1 YY    0.007801   0.001056   0.001000  -0.001067   0.000758
   20  C  1 ZZ    0.004448   0.000295   0.000650  -0.002009   0.004492
   21  C  1 XY    0.005099  -0.001855   0.007331   0.003907  -0.002949
   22  C  1 XZ   -0.005694  -0.000399   0.000750  -0.007610   0.002537
   23  C  1 YZ   -0.001573   0.001073  -0.002249  -0.001177  -0.000940
   24  C  1 XX    0.126214  -0.012327   0.162903   0.024764   0.271670
   25  C  1 YY    0.089036   0.023171   0.168424   0.037315   0.237384
   26  C  1 ZZ    0.084384   0.035571   0.161098   0.018010   0.250837
   27  C  1 XY    0.008004   0.004770   0.019201   0.011249   0.003204
   28  C  1 XZ    0.013005   0.004894   0.003514  -0.023913   0.014187
   29  C  1 YZ    0.006157   0.014999  -0.013467  -0.005522  -0.009195
   30  O  2  S    0.006254   0.002870  -0.017937   0.008985  -0.001695
   31  O  2  S    0.010663   0.005094  -0.029042   0.014779  -0.001021
   32  O  2  X    0.010710  -0.007996   0.036947  -0.017960  -0.015057
   33  O  2  Y    0.035897  -0.009551   0.052807   0.027346  -0.031751
   34  O  2  Z   -0.016531   0.005210   0.001126  -0.056893   0.006122
   35  O  2  S   -0.021603  -0.011770   0.116849  -0.065705   0.060477
   36  O  2  X    0.021647  -0.014315   0.050239  -0.026183  -0.024464
   37  O  2  Y    0.056618  -0.009936   0.092381   0.049484  -0.051463
   38  O  2  Z   -0.024816   0.016034  -0.003518  -0.102067   0.007971
   39  O  2  S   -0.305162   0.063507   0.148793   0.050145  -0.267889
   40  O  2  X    0.105797  -0.087677   0.065865  -0.070801  -0.001735
   41  O  2  Y    0.073353  -0.049336   0.069080   0.030339  -0.088110
   42  O  2  Z   -0.034987  -0.045157  -0.000413  -0.056283   0.039727
   43  O  2  S   -0.556567   0.243307   2.634683  -0.787023   2.012600
   44  O  2  X    0.259807  -0.087231  -0.657147  -0.401370  -1.069605
   45  O  2  Y    0.033969   0.201087   0.298178   0.126551  -0.217406
   46  O  2  Z    0.031703   0.279971  -0.147813  -0.761712  -0.405447
   47  O  2 XX    0.000315  -0.000595   0.000409   0.000465   0.001582
   48  O  2 YY   -0.000420  -0.000334   0.003791  -0.001851   0.000627
   49  O  2 ZZ   -0.000691   0.001103   0.001505  -0.001029   0.002599
   50  O  2 XY    0.000222   0.001616   0.001167  -0.000036  -0.003221
   51  O  2 XZ    0.000202   0.002792  -0.003435   0.002862   0.003181
   52  O  2 YZ   -0.000231   0.000592  -0.000410  -0.000523  -0.000794
   53  O  2 XX    0.006114   0.007909   0.009203   0.004400   0.029282
   54  O  2 YY    0.005170  -0.001637   0.022778  -0.020802   0.028446
   55  O  2 ZZ    0.006022   0.005379   0.013145  -0.009897   0.037875
   56  O  2 XY    0.002117   0.008699   0.007805   0.004036  -0.008200
   57  O  2 XZ    0.005005   0.017824  -0.013511   0.017556   0.014575
   58  O  2 YZ   -0.002525   0.004034   0.001289  -0.000734  -0.000329
   59  H  3  S    0.028460   0.035097  -0.085051   0.078337   0.031295
   60  H  3  S    0.054628   0.026143  -0.114205   0.059915  -0.005237
   61  H  3  S    0.131958   0.352937  -0.770497   1.383014   0.833674
   62  H  3  S    0.279304  -1.074548   1.908524  -1.689494  -0.558339
   63  H  3  X    0.004629  -0.006833  -0.005004   0.012823  -0.005823
   64  H  3  Y    0.001100   0.006956   0.007470   0.001155  -0.008250
   65  H  3  Z   -0.000439   0.004012  -0.008587   0.012073   0.006734
   66  H  4  S   -0.041755   0.004555   0.007070  -0.017198   0.043246
   67  H  4  S   -0.117867   0.003609   0.051821  -0.039707  -0.042492
   68  H  4  S   -0.129323  -0.116451  -0.105198   0.128484   0.994195
   69  H  4  S   -1.938069  -0.133299  -0.779703   3.296445  -3.359915
   70  H  4  X    0.001524   0.004646  -0.004905  -0.004691   0.005476
   71  H  4  Y   -0.000464  -0.000807  -0.006131  -0.001491   0.000285
   72  H  4  Z    0.008697   0.000174   0.004044   0.004520  -0.001210
   73  H  5  S   -0.030505   0.011890  -0.046800  -0.015384   0.001778
   74  H  5  S   -0.114434   0.006387  -0.080418  -0.005279   0.068596
   75  H  5  S    0.020581   0.099729  -0.308956  -0.183442  -0.236557
   76  H  5  S   -1.474132   3.272226   2.131554  -0.959261   1.386606
   77  H  5  X   -0.004776   0.001718  -0.002567  -0.003067  -0.001286
   78  H  5  Y   -0.004568   0.010424  -0.001933  -0.003891   0.002084
   79  H  5  Z   -0.002749   0.008475   0.006588   0.006499  -0.000086
   80  H  6  S   -0.005998   0.015587  -0.017777  -0.016344  -0.024786
   81  H  6  S   -0.041737   0.009401   0.032291  -0.061028   0.049622
   82  H  6  S    0.047160   0.096639  -0.311284   0.107684  -0.589179
   83  H  6  S   -0.208371  -3.103736  -0.764074  -0.429084   4.202934
   84  H  6  X   -0.000065   0.001976  -0.004356  -0.001979   0.000302
   85  H  6  Y   -0.000125   0.009163  -0.001564  -0.002358  -0.003329
   86  H  6  Z    0.006545   0.005878   0.007003   0.006367  -0.005114

                     16         17         18         19         20
                    0.1326     0.1525     0.1764     0.1974     0.2123
                     A          A          A          A          A   
    1  C  1  S   -0.019655   0.034528   0.017996   0.014731   0.003284
    2  C  1  S   -0.038328   0.063550   0.032691   0.027193   0.000376
    3  C  1  X   -0.031309   0.053519   0.054291   0.030173   0.008401
    4  C  1  Y   -0.020333   0.044430   0.008825  -0.131257  -0.025744
    5  C  1  Z    0.025812  -0.031373   0.050352   0.004123   0.080491
    6  C  1  S   -0.824037   0.232868  -0.354252   0.061919  -0.953562
    7  C  1  X   -0.034456   0.177403   0.095094   0.066015  -0.050688
    8  C  1  Y   -0.037154   0.047094   0.024300  -0.143006  -0.018145
    9  C  1  Z    0.043131  -0.013851   0.084012   0.006174   0.109789
   10  C  1  S    5.084452  -0.233275   2.574766   0.066320   3.595530
   11  C  1  X    0.638817   1.032516   1.104937   0.518378   0.155514
   12  C  1  Y   -0.057873   0.277726  -0.023159  -0.782196  -0.175606
   13  C  1  Z    0.187335  -0.034978   0.282569   0.108671   0.462376
   14  C  1  S    4.768319   6.749971   4.891220   1.344213  -1.697663
   15  C  1  X    1.538500   1.672495  -3.087667   0.105176   1.764141
   16  C  1  Y   -0.495169  -0.888962  -0.761426   2.924719  -3.355720
   17  C  1  Z   -0.379089   0.490867  -3.016152   3.121452  -1.813832
   18  C  1 XX   -0.006971   0.006771   0.000935   0.007077  -0.006778
   19  C  1 YY   -0.006928   0.003295  -0.001377  -0.002579  -0.015219
   20  C  1 ZZ   -0.007905   0.007828  -0.002149  -0.000321  -0.011461
   21  C  1 XY    0.005124  -0.001729  -0.001145  -0.001593   0.001855
   22  C  1 XZ    0.000642   0.006662   0.001939   0.001785   0.001604
   23  C  1 YZ   -0.008687  -0.000366   0.002819  -0.003330   0.000620
   24  C  1 XX   -0.433864   0.350359  -0.019892   0.147753  -0.520607
   25  C  1 YY   -0.559591   0.166915  -0.165261   0.042055  -0.520938
   26  C  1 ZZ   -0.574877   0.187267  -0.192278   0.063876  -0.480550
   27  C  1 XY   -0.001506   0.016605  -0.008647  -0.025933   0.017747
   28  C  1 XZ    0.005797   0.034528  -0.000289   0.032879   0.050722
   29  C  1 YZ   -0.053196   0.011717   0.002555   0.005020   0.020751
   30  O  2  S    0.007696  -0.002350   0.002414  -0.004511   0.001687
   31  O  2  S    0.011658  -0.007535   0.008704  -0.007142   0.003976
   32  O  2  X   -0.017285  -0.005471  -0.038590  -0.009979  -0.017938
   33  O  2  Y    0.030120  -0.016142  -0.006549   0.000512   0.001658
   34  O  2  Z   -0.000439   0.018357  -0.014790  -0.028476  -0.049742
   35  O  2  S   -0.054030  -0.085833   0.163959   0.056881   0.029677
   36  O  2  X   -0.017905   0.006190  -0.044419  -0.012755  -0.025158
   37  O  2  Y    0.051132  -0.023051  -0.011655   0.013901   0.012489
   38  O  2  Z    0.006077   0.027032  -0.018663  -0.044841  -0.077960
   39  O  2  S   -0.350395  -0.175083  -1.415788  -0.418715  -0.142089
   40  O  2  X    0.080342   0.344790   0.102749   0.138421  -0.146899
   41  O  2  Y    0.067358  -0.088691  -0.006901   0.028914  -0.074739
   42  O  2  Z    0.007296   0.153460   0.015157  -0.030478  -0.256124
   43  O  2  S   -4.332632  -3.596418  -1.674184  -0.806133  -2.113971
   44  O  2  X    1.841889   0.676900   2.300943   0.601876   1.522044
   45  O  2  Y    0.155824  -0.063690  -0.043901   0.781891   0.563221
   46  O  2  Z    0.688015   0.362815   0.664471   0.117364   0.151435
   47  O  2 XX    0.000726  -0.004457   0.008422   0.001631   0.004225
   48  O  2 YY   -0.002007  -0.001921   0.001748   0.000329  -0.000157
   49  O  2 ZZ   -0.002938  -0.001975   0.001045   0.000057  -0.001499
   50  O  2 XY    0.001156  -0.003057  -0.000572   0.008657   0.000670
   51  O  2 XZ   -0.000788   0.000190   0.000261  -0.000010  -0.004544
   52  O  2 YZ   -0.001910  -0.000505   0.000467   0.001624   0.000726
   53  O  2 XX   -0.015697  -0.098269   0.111804   0.008323   0.045208
   54  O  2 YY   -0.008129  -0.050483   0.098240   0.021217   0.018648
   55  O  2 ZZ   -0.012532  -0.051510   0.093726   0.017161   0.011854
   56  O  2 XY    0.005240  -0.004909  -0.003192   0.020055   0.008240
   57  O  2 XZ   -0.009785  -0.013381  -0.009005  -0.003100   0.000677
   58  O  2 YZ   -0.006020  -0.002913   0.002357   0.003907   0.006869
   59  H  3  S    0.011778  -0.048850   0.044280  -0.014790   0.004437
   60  H  3  S    0.053321  -0.102970   0.059495  -0.035136   0.003511
   61  H  3  S   -0.467066  -0.652356  -0.235673  -0.482772   0.007003
   62  H  3  S   -1.967832  -0.440550   0.478539  -0.055145  -1.342656
   63  H  3  X    0.003462  -0.006578   0.010739   0.000906   0.010292
   64  H  3  Y    0.001876  -0.010544  -0.001078   0.024056   0.007406
   65  H  3  Z   -0.001180   0.012255  -0.006898   0.005088  -0.008906
   66  H  4  S   -0.020609   0.051429   0.003993   0.064232   0.075949
   67  H  4  S   -0.006161   0.088232   0.193257   0.028439   0.005258
   68  H  4  S   -0.308863   0.708185  -0.682639   1.239241   1.300085
   69  H  4  S   -0.740770   0.646618  -4.396025  -1.210524   1.363863
   70  H  4  X    0.004703  -0.002581  -0.011561  -0.009174  -0.006068
   71  H  4  Y    0.001622   0.001715  -0.001236  -0.002534  -0.006616
   72  H  4  Z    0.008319  -0.014102  -0.003778  -0.004593  -0.002280
   73  H  5  S   -0.085865   0.036024   0.019441   0.006850   0.043482
   74  H  5  S   -0.051343   0.037326  -0.028545   0.112362  -0.130881
   75  H  5  S   -1.102439   0.343825   0.708395  -0.466800   1.472454
   76  H  5  S    1.484901  -1.663223   0.766045  -3.955789   3.633385
   77  H  5  X   -0.006870   0.003303  -0.004093   0.002467   0.005201
   78  H  5  Y   -0.005435   0.004194  -0.002839   0.005336  -0.006468
   79  H  5  Z   -0.004933   0.008178  -0.005104   0.007505   0.000518
   80  H  6  S   -0.051844   0.010285   0.009434  -0.021370  -0.032288
   81  H  6  S    0.017709   0.034443   0.056663  -0.213268  -0.038670
   82  H  6  S   -0.805136   0.004123  -0.110793   0.484353  -0.657063
   83  H  6  S   -0.323596  -3.083629  -0.868483   3.987010  -2.944517
   84  H  6  X    0.000328  -0.002463  -0.007922  -0.006314   0.001813
   85  H  6  Y    0.003923  -0.003267  -0.004472  -0.001452  -0.004494
   86  H  6  Z    0.010721  -0.004943  -0.005269  -0.003015  -0.003389

                     21         22         23         24         25
                    0.2550     0.2770     0.3138     0.3660     0.3745
                     A          A          A          A          A   
    1  C  1  S   -0.004451   0.011445   0.005776  -0.007021   0.006954
    2  C  1  S   -0.013694   0.020910   0.012563  -0.015290   0.021392
    3  C  1  X    0.009073   0.000643  -0.018148   0.006391   0.006815
    4  C  1  Y    0.021403  -0.035294   0.110569   0.081108  -0.018446
    5  C  1  Z   -0.035743   0.100910   0.127446  -0.027993   0.017915
    6  C  1  S   -1.479191   0.294990   0.628451  -1.407456   1.636801
    7  C  1  X    0.007669   0.002545   0.018741  -0.082468  -0.160646
    8  C  1  Y   -0.001265  -0.120792   0.181218   0.119756  -0.056071
    9  C  1  Z   -0.111245   0.166588   0.141667   0.023236  -0.032018
   10  C  1  S    7.760410  -1.727894  -2.794918   6.283281 -11.525057
   11  C  1  X    1.057087  -0.077414  -0.039740  -0.066326  -2.281675
   12  C  1  Y    0.233898   0.024030   0.809839   0.562540  -0.013003
   13  C  1  Z    0.098349   0.663973   1.272641  -0.630264  -0.376043
   14  C  1  S    0.029462  -0.690248  -1.751907   2.751756  -8.656004
   15  C  1  X    1.429675   0.552950   1.358077  -1.265085  -3.058083
   16  C  1  Y    2.371732   2.826848   1.797075   0.522877   0.781761
   17  C  1  Z    4.210079   1.765924   3.845891  -1.673387  -0.331103
   18  C  1 XX   -0.015785   0.008885   0.005604  -0.007921   0.002022
   19  C  1 YY   -0.013825  -0.001550   0.003664  -0.010974   0.019193
   20  C  1 ZZ   -0.008658  -0.002174   0.008233  -0.017655   0.018220
   21  C  1 XY   -0.001354   0.006703  -0.003638  -0.000722   0.000164
   22  C  1 XZ    0.007644  -0.002764   0.001755  -0.004282  -0.003724
   23  C  1 YZ    0.006963   0.000685  -0.002549  -0.000796  -0.003394
   24  C  1 XX   -0.756322   0.216198   0.365245  -0.801249   0.715165
   25  C  1 YY   -0.858014   0.179536   0.343420  -0.703508   1.095527
   26  C  1 ZZ   -0.878702   0.217578   0.376912  -0.770484   1.075777
   27  C  1 XY   -0.007523  -0.009617   0.017768   0.020685  -0.004505
   28  C  1 XZ   -0.033224   0.053064   0.043964  -0.002537  -0.110490
   29  C  1 YZ    0.009811  -0.000534   0.013772   0.016147  -0.053689
   30  O  2  S    0.000335  -0.007774  -0.002353   0.004657   0.028032
   31  O  2  S    0.003681  -0.014815  -0.004191   0.011757   0.057794
   32  O  2  X   -0.024351   0.010999   0.004119  -0.009238  -0.033342
   33  O  2  Y    0.009479   0.103059  -0.065991  -0.031059   0.018129
   34  O  2  Z    0.067819  -0.073515  -0.005532  -0.059457   0.006650
   35  O  2  S    0.129971  -0.019924  -0.002648   0.135197   0.115065
   36  O  2  X   -0.020839   0.012476   0.006508  -0.011999  -0.064782
   37  O  2  Y    0.000064   0.112146  -0.072141  -0.035358   0.021604
   38  O  2  Z    0.075112  -0.097404  -0.011673  -0.049034  -0.008175
   39  O  2  S   -0.938675   0.331003  -0.035420  -0.594381  -0.478764
   40  O  2  X   -0.025877   0.106380   0.142479  -0.299036  -0.976485
   41  O  2  Y    0.095429   0.535324  -0.402429  -0.196903   0.107429
   42  O  2  Z    0.436307  -0.368388  -0.064463  -0.461032  -0.083240
   43  O  2  S   -4.363782  -0.259318   0.121766   0.932475  15.147073
   44  O  2  X    4.045954  -0.786084  -1.598361   4.776009  -3.317825
   45  O  2  Y   -0.751001  -1.653376   0.758974   0.336817  -0.271247
   46  O  2  Z   -0.138709  -0.212585  -1.717125   5.109860  -0.835764
   47  O  2 XX    0.004863   0.000785   0.002371   0.003381   0.000530
   48  O  2 YY    0.001440  -0.000542  -0.000528   0.003443   0.009309
   49  O  2 ZZ    0.001834  -0.003004  -0.002010   0.002310   0.009229
   50  O  2 XY   -0.001805  -0.000078  -0.004342  -0.003789   0.000896
   51  O  2 XZ    0.002021  -0.005134  -0.008138   0.004556  -0.002041
   52  O  2 YZ    0.001147  -0.000025  -0.001489  -0.000786  -0.001206
   53  O  2 XX    0.082983  -0.035878  -0.008190   0.101802   0.223041
   54  O  2 YY    0.075803  -0.037510  -0.011606   0.098252   0.167957
   55  O  2 ZZ    0.063707  -0.036855  -0.008749   0.078715   0.158199
   56  O  2 XY   -0.009347  -0.013447   0.003567  -0.006393   0.000553
   57  O  2 XZ   -0.029367   0.008000  -0.008594   0.007721  -0.010537
   58  O  2 YZ    0.003496  -0.002428  -0.007995  -0.005466  -0.002822
   59  H  3  S   -0.028858  -0.006067  -0.008357  -0.000748   0.001943
   60  H  3  S    0.076781  -0.101989  -0.176506   0.296857   0.090228
   61  H  3  S   -1.970239   0.838816   1.752659  -5.538247  -0.884624
   62  H  3  S   -0.697222  -0.366828  -0.747605   0.585544   1.509676
   63  H  3  X    0.001174   0.004798   0.008772  -0.015565  -0.018837
   64  H  3  Y   -0.005225  -0.010213   0.002023  -0.002302  -0.003357
   65  H  3  Z   -0.018241   0.005050   0.000684  -0.008704  -0.009619
   66  H  4  S    0.014605   0.044114   0.008192  -0.007947   0.012842
   67  H  4  S    0.028541  -0.068869  -0.072694  -0.056489  -0.044444
   68  H  4  S    0.619701   1.364351   1.234099  -1.360892   0.574932
   69  H  4  S    2.338025  -0.631529   1.619671  -1.469028  -1.473417
   70  H  4  X    0.017328  -0.018417  -0.002426  -0.012679  -0.003127
   71  H  4  Y   -0.001449  -0.005686   0.005731   0.001047   0.004947
   72  H  4  Z    0.017016  -0.009175  -0.009206   0.009372   0.004349
   73  H  5  S   -0.003147  -0.030143  -0.049986  -0.013430  -0.016932
   74  H  5  S   -0.019901  -0.026083   0.017520   0.037259   0.058401
   75  H  5  S    0.138083  -0.574227  -2.462734  -1.458307  -0.917786
   76  H  5  S   -2.825167  -1.474995  -1.498483  -0.075036   0.976503
   77  H  5  X    0.000140  -0.006557  -0.006069  -0.001225   0.008846
   78  H  5  Y    0.000501   0.002469   0.001607  -0.001259  -0.000461
   79  H  5  Z    0.001510   0.011074   0.001736  -0.011897   0.000796
   80  H  6  S    0.045113   0.016565   0.058784   0.017710  -0.026392
   81  H  6  S   -0.037827  -0.030749  -0.042652  -0.209973   0.050327
   82  H  6  S    1.439362   0.714014   2.515837   2.154989  -0.743345
   83  H  6  S    1.666412   2.422137   1.331432  -0.529911   2.654167
   84  H  6  X   -0.006565  -0.000295   0.006016   0.003934   0.016742
   85  H  6  Y    0.015337  -0.003997   0.000392  -0.014628  -0.004079
   86  H  6  Z    0.008770   0.001921  -0.009388   0.004458   0.001514

                     26         27         28         29         30
                    0.4718     0.4957     0.5422     0.6137     0.6488
                     A          A          A          A          A   
    1  C  1  S    0.014418   0.000881   0.043776   0.034099   0.029664
    2  C  1  S    0.025724  -0.006556   0.064066   0.040303   0.025487
    3  C  1  X   -0.037135  -0.031422   0.093963   0.069719   0.058035
    4  C  1  Y    0.004577  -0.020130   0.003938   0.063991   0.037177
    5  C  1  Z   -0.036570  -0.010553   0.024524  -0.029332  -0.047545
    6  C  1  S   -0.470125  -1.233813  -1.745154  -3.623453  -4.534866
    7  C  1  X   -0.309145   0.233136  -0.143212  -0.249017   0.344109
    8  C  1  Y    0.022247  -0.069471   0.030604   0.192739   0.157157
    9  C  1  Z   -0.049084   0.057660  -0.041975  -0.133453  -0.166941
   10  C  1  S   -1.623513  11.507410  -0.402295   6.136406  20.658790
   11  C  1  X   -1.481840   4.296118  -2.791766  -2.391799   3.840969
   12  C  1  Y   -0.161775   0.059084  -0.077072  -0.155557  -0.296303
   13  C  1  Z   -0.856410   0.804696  -0.534434  -0.576672   1.280366
   14  C  1  S   -0.084196   3.294883  -2.040257  -3.241622   1.440616
   15  C  1  X   -0.574183  -0.367078  -0.144327   1.289362   0.798474
   16  C  1  Y   -0.555278   0.325314   0.123384  -1.005583   0.222651
   17  C  1  Z   -1.112213  -0.263510  -0.244586  -0.224282   0.392007
   18  C  1 XX   -0.014396  -0.045181  -0.013648  -0.044190  -0.048866
   19  C  1 YY   -0.009110   0.009794  -0.031166  -0.036767  -0.039930
   20  C  1 ZZ   -0.004117   0.013568  -0.023683  -0.048909  -0.039379
   21  C  1 XY    0.001028   0.000516   0.000676  -0.001401   0.003780
   22  C  1 XZ    0.010931  -0.003195   0.009565  -0.013220  -0.009380
   23  C  1 YZ   -0.003073   0.007016   0.018443   0.002669  -0.016728
   24  C  1 XX   -0.281501  -0.429129  -1.156972  -2.198428  -2.453383
   25  C  1 YY   -0.038560  -0.915951  -0.762439  -1.599633  -2.703787
   26  C  1 ZZ   -0.092053  -0.896985  -0.785870  -1.825968  -2.448130
   27  C  1 XY   -0.003110  -0.003744  -0.019860   0.004733   0.002953
   28  C  1 XZ   -0.006001   0.113322  -0.151500  -0.084346   0.093344
   29  C  1 YZ   -0.035569   0.024438   0.009127   0.007337  -0.173032
   30  O  2  S   -0.019665   0.007219  -0.003704  -0.008502   0.011565
   31  O  2  S   -0.031610   0.020987  -0.010461  -0.014985   0.028467
   32  O  2  X    0.014454   0.063660  -0.022925   0.001613   0.015564
   33  O  2  Y    0.001883   0.000443  -0.010893  -0.018499   0.003935
   34  O  2  Z    0.044766   0.008834  -0.038509   0.037660   0.003688
   35  O  2  S    0.068618   0.415872  -0.218299  -0.065681   0.500475
   36  O  2  X   -0.009012   0.123575  -0.067585  -0.023447   0.046099
   37  O  2  Y   -0.000397   0.001562  -0.016185  -0.022711  -0.003494
   38  O  2  Z    0.069263   0.027578  -0.072542   0.079996   0.003551
   39  O  2  S    1.572317  -4.779375   3.308496   2.937472  -4.525198
   40  O  2  X   -0.731246   1.351454  -1.199350  -1.390137   1.029302
   41  O  2  Y    0.049939   0.025095   0.028269  -0.137778   0.087022
   42  O  2  Z   -0.020125   0.238985  -0.211642  -0.322402   0.126088
   43  O  2  S    0.972172  -6.920590   3.661033   0.224597  -9.930217
   44  O  2  X   -0.664632   2.770442  -1.452579   0.381060   4.156834
   45  O  2  Y   -0.017857  -0.012001   0.115727   0.208203   0.041730
   46  O  2  Z   -0.125517   1.140467  -0.222293   0.115249   0.878123
   47  O  2 XX   -0.009051   0.006620  -0.004513  -0.004971   0.009560
   48  O  2 YY    0.011100   0.008339  -0.002898   0.003218   0.003801
   49  O  2 ZZ    0.004317   0.005068  -0.002615   0.002149   0.007926
   50  O  2 XY    0.000349   0.000355  -0.001343  -0.003055   0.000668
   51  O  2 XZ   -0.010603  -0.004115   0.000710   0.000779   0.003662
   52  O  2 YZ    0.000385  -0.000117   0.000506  -0.001293  -0.002446
   53  O  2 XX    0.066780   0.170116  -0.058341   0.026610   0.187622
   54  O  2 YY   -0.016690   0.286431  -0.144675  -0.065944   0.328823
   55  O  2 ZZ   -0.018225   0.277407  -0.146202  -0.067421   0.338556
   56  O  2 XY   -0.007466  -0.001951  -0.015142  -0.006050  -0.008120
   57  O  2 XZ    0.022199  -0.028474  -0.000743   0.048898  -0.021496
   58  O  2 YZ   -0.004864   0.007784   0.027416  -0.006044  -0.045775
   59  H  3  S   -0.121144  -0.055174   0.023099  -0.027996   0.008978
   60  H  3  S   -1.425016  -0.706206   0.273902  -0.066131   0.246101
   61  H  3  S    3.039258   0.755516   0.018060   0.178674  -0.828340
   62  H  3  S   -0.906151  -1.059186   0.138636  -0.815714  -0.204812
   63  H  3  X   -0.005339   0.003617   0.018021  -0.022654   0.001326
   64  H  3  Y    0.002052  -0.008005  -0.009916  -0.008496   0.000453
   65  H  3  Z    0.007745  -0.007346   0.000115  -0.013096  -0.016491
   66  H  4  S    0.022751  -0.023209   0.094611  -0.039737   0.033589
   67  H  4  S    0.338183  -0.104092   0.971738  -1.052192   0.426777
   68  H  4  S   -2.087203   1.390445  -2.510522   1.132044  -0.618640
   69  H  4  S    0.234233  -2.474480   0.836790   0.801130   0.959587
   70  H  4  X   -0.002136   0.017694   0.015901  -0.005651   0.026887
   71  H  4  Y    0.002011  -0.007946  -0.029205   0.003864   0.024129
   72  H  4  Z    0.019088  -0.030908   0.020807   0.033094  -0.019541
   73  H  5  S   -0.017660   0.046386   0.066772  -0.016814   0.010822
   74  H  5  S   -0.120326   0.547746   1.060006  -0.263122  -0.624188
   75  H  5  S    0.783342  -1.769177  -2.226739   0.338306   0.770079
   76  H  5  S    0.570618   0.811897   0.943257   1.664294  -0.376843
   77  H  5  X    0.014343   0.014075   0.017259  -0.018688  -0.006967
   78  H  5  Y    0.004982  -0.022185  -0.019084   0.006984  -0.016352
   79  H  5  Z    0.003761  -0.016453  -0.008635  -0.028001   0.003333
   80  H  6  S   -0.016581   0.026572   0.017176   0.069185  -0.017663
   81  H  6  S   -0.314381   0.417556   0.458367   0.618851  -0.828807
   82  H  6  S    0.388396  -1.397675  -0.759099  -1.845481   1.556755
   83  H  6  S   -0.782892   1.555548   0.400028   0.330559  -0.565157
   84  H  6  X   -0.003785  -0.021123  -0.010658   0.028486  -0.020989
   85  H  6  Y   -0.006935   0.024510   0.022441  -0.012023   0.020435
   86  H  6  Z   -0.003533   0.013173   0.010570   0.018796  -0.005082

                     31         32         33         34         35
                    0.7207     0.7245     0.7692     0.8569     0.9507
                     A          A          A          A          A   
    1  C  1  S    0.000677   0.014019   0.011241   0.004959   0.012135
    2  C  1  S   -0.001195   0.013161   0.016255   0.002529   0.022697
    3  C  1  X    0.023712   0.008749   0.013875   0.005053  -0.064124
    4  C  1  Y   -0.159218  -0.092841  -0.139999  -0.017073   0.033782
    5  C  1  Z   -0.151299   0.155300   0.012975   0.100807   0.021332
    6  C  1  S   -0.770420  -1.957442  -1.279046  -1.685259  -2.043889
    7  C  1  X   -0.069189   0.153213  -0.068178  -0.047849  -0.392979
    8  C  1  Y   -0.503319  -0.395267  -0.650799   0.032929  -0.013411
    9  C  1  Z   -0.452262   0.658811  -0.065907   0.590724   0.011920
   10  C  1  S    0.467455   9.430096   3.567141   4.879826   5.604107
   11  C  1  X   -1.063168   1.389110  -0.206313  -1.337726   0.923822
   12  C  1  Y    0.960301   0.732844   2.315400  -0.987063  -1.292392
   13  C  1  Z    0.485034  -1.165362   0.910453  -3.550922  -0.785735
   14  C  1  S   -1.390899   1.420765   0.550357   0.515927   1.654125
   15  C  1  X    1.296869   0.380755  -0.207058   0.042847   0.364500
   16  C  1  Y    1.444573  -0.588068  -2.048316   1.026185   0.418194
   17  C  1  Z    2.581375  -0.230733  -2.239854   0.776367   0.427193
   18  C  1 XX   -0.006285  -0.015351  -0.008912  -0.015372  -0.029009
   19  C  1 YY   -0.005361  -0.019368  -0.012778  -0.016139  -0.005787
   20  C  1 ZZ   -0.013613  -0.017013  -0.011214  -0.020373  -0.008184
   21  C  1 XY   -0.008683  -0.008988  -0.015318   0.001084  -0.004590
   22  C  1 XZ   -0.008355   0.013449  -0.003619   0.002833  -0.006796
   23  C  1 YZ   -0.002759  -0.008208  -0.002048  -0.003375  -0.001391
   24  C  1 XX   -0.491673  -1.098272  -0.649963  -1.001098  -0.652825
   25  C  1 YY   -0.180076  -0.708384  -1.035200  -1.299038  -1.004860
   26  C  1 ZZ   -0.482741  -1.543049  -0.269494  -0.380793  -1.169457
   27  C  1 XY    0.059292   0.032109   0.008543   0.068075  -1.114535
   28  C  1 XZ   -0.010133   0.110120  -0.081112  -0.338919  -0.307961
   29  C  1 YZ    0.019318  -0.084156   0.006092  -0.013137  -0.030865
   30  O  2  S   -0.001216   0.004814  -0.003827   0.000591   0.000551
   31  O  2  S   -0.004072   0.010702  -0.005681   0.000459  -0.002396
   32  O  2  X   -0.002105   0.000190  -0.003868   0.005092   0.006413
   33  O  2  Y    0.021262   0.011345   0.015308   0.000119  -0.011339
   34  O  2  Z    0.046087  -0.031340  -0.021271   0.002685  -0.019502
   35  O  2  S   -0.153576   0.131979   0.032070  -0.062407  -0.233841
   36  O  2  X   -0.005144   0.006985   0.010527  -0.006697   0.049856
   37  O  2  Y    0.019086   0.025597   0.042530  -0.009953  -0.047185
   38  O  2  Z    0.073528  -0.076360  -0.028322  -0.020449  -0.053822
   39  O  2  S    1.626735  -1.531792   0.141594   1.445140   0.903366
   40  O  2  X   -0.560246   0.639990  -0.349543  -0.357923  -0.947421
   41  O  2  Y    0.087654  -0.016105  -0.290729   0.190654   1.396617
   42  O  2  Z    0.071662   0.172352  -0.367227   0.510694   0.426131
   43  O  2  S   -0.274820  -4.200617  -0.347776  -0.190372  -3.556037
   44  O  2  X    0.010687   2.245960   1.226959   2.057047   1.670779
   45  O  2  Y   -0.253670  -0.167142   0.006168  -0.140779  -0.339801
   46  O  2  Z   -0.524949   1.435746   1.222412   2.031522   0.316188
   47  O  2 XX   -0.006792   0.008166  -0.000190   0.000995  -0.020445
   48  O  2 YY    0.001416   0.005399  -0.002853  -0.007142   0.003855
   49  O  2 ZZ    0.000266  -0.007949   0.006476   0.004351   0.006198
   50  O  2 XY    0.005239   0.004451   0.005096   0.000154   0.024622
   51  O  2 XZ    0.005415  -0.004228  -0.001242   0.000794   0.004380
   52  O  2 YZ    0.001528  -0.000237  -0.001359   0.001975   0.007299
   53  O  2 XX   -0.061651   0.039907   0.020908  -0.006863  -0.075805
   54  O  2 YY   -0.079629   0.139096  -0.026626  -0.069990  -0.114735
   55  O  2 ZZ   -0.084696   0.043232   0.035794  -0.002119  -0.102711
   56  O  2 XY    0.038992   0.032752   0.083247  -0.025938  -0.061916
   57  O  2 XZ    0.047811  -0.033070   0.007934  -0.058327  -0.025002
   58  O  2 YZ    0.024166  -0.010345   0.014601   0.002713   0.074317
   59  H  3  S   -0.000652   0.027602  -0.017130   0.014944   0.003569
   60  H  3  S    0.016561   0.090386   0.031525  -0.077601   0.202256
   61  H  3  S    0.098422  -1.221396  -0.904883  -2.086395  -0.440155
   62  H  3  S   -0.570841  -0.100043  -0.051852  -0.020398  -0.256790
   63  H  3  X   -0.009484   0.068208  -0.040266   0.007624  -0.048390
   64  H  3  Y    0.008983   0.007326   0.023275  -0.009736   0.204546
   65  H  3  Z   -0.004521  -0.014169   0.006884   0.003612   0.079227
   66  H  4  S   -0.024027   0.037944   0.006461   0.000165   0.004659
   67  H  4  S   -0.610469   0.260701   0.305630  -1.080104   0.120345
   68  H  4  S    1.020939  -1.195688  -1.098321  -0.697588  -0.074504
   69  H  4  S    1.342719   0.804513   0.063264   0.154632   0.060889
   70  H  4  X   -0.001533  -0.016727   0.029576  -0.011504  -0.019787
   71  H  4  Y    0.015221   0.017474   0.006338   0.006123   0.112198
   72  H  4  Z    0.035853  -0.006540  -0.007131  -0.045138   0.042039
   73  H  5  S    0.075312  -0.008508  -0.002664   0.003831  -0.004010
   74  H  5  S    0.807228  -0.273603  -0.851177   0.929182   0.202980
   75  H  5  S   -2.376902   0.633862   0.036632  -0.287527   0.382391
   76  H  5  S   -0.641612   0.000149   2.106058  -1.064055  -0.573845
   77  H  5  X    0.007038   0.007993  -0.033754   0.015350   0.002271
   78  H  5  Y    0.056399   0.022651   0.002183  -0.079423  -0.047256
   79  H  5  Z    0.027022  -0.050856   0.072979  -0.005716  -0.028505
   80  H  6  S   -0.078793   0.011198   0.003287   0.000820   0.002666
   81  H  6  S   -0.982362  -0.177034   0.881381  -1.128998  -0.413177
   82  H  6  S    2.682334   0.297246   0.060947   0.614461  -0.095264
   83  H  6  S    0.595798  -0.936456  -2.257123   0.806049   0.113517
   84  H  6  X    0.026992  -0.019585   0.024566   0.004097   0.102396
   85  H  6  Y    0.015341  -0.046578   0.076287  -0.020492  -0.034547
   86  H  6  Z    0.057496   0.026731   0.013727  -0.074995   0.008372

                     36         37         38         39         40
                    0.9706     1.1069     1.1586     1.1840     1.2545
                     A          A          A          A          A   
    1  C  1  S    0.026204   0.022178  -0.013167  -0.016225   0.013530
    2  C  1  S    0.050742   0.028965  -0.022678  -0.026632   0.018115
    3  C  1  X   -0.129916  -0.090001   0.095301   0.073053  -0.043574
    4  C  1  Y   -0.012777   0.005634  -0.032139   0.036546   0.014563
    5  C  1  Z    0.023907  -0.042408   0.023038   0.015750   0.000063
    6  C  1  S   -3.242453  -0.794610  -0.729119   0.205300  -1.807018
    7  C  1  X   -0.749720   0.919306   0.027827  -0.152712   0.029879
    8  C  1  Y    0.035311   0.021772   0.072108  -0.064146  -0.011053
    9  C  1  Z   -0.173369   0.250101   0.043577  -0.086701   0.078648
   10  C  1  S    8.647189  12.378044   0.399259  -6.114576  11.555070
   11  C  1  X    1.982762   4.166161  -1.082617  -2.813415   3.720864
   12  C  1  Y    0.667625   0.109103   0.437621   0.023524   0.193224
   13  C  1  Z    0.337636   0.958291  -0.280008  -0.413618   0.849219
   14  C  1  S    2.306065   4.103175   1.295919   0.023503   0.040307
   15  C  1  X    0.595095   1.256862   0.568914   0.717144  -0.798265
   16  C  1  Y   -0.165002  -0.117077  -0.791095   0.235927   0.231745
   17  C  1  Z    0.551952   0.149050  -0.414039   0.301615  -0.651831
   18  C  1 XX   -0.043205   0.074410  -0.032139  -0.025658  -0.007232
   19  C  1 YY   -0.012415  -0.033410   0.010003   0.015987  -0.027745
   20  C  1 ZZ   -0.011779  -0.033118   0.007118   0.017430  -0.025348
   21  C  1 XY    0.003199  -0.000985   0.008344  -0.014154  -0.006131
   22  C  1 XZ   -0.009224   0.028680  -0.011509  -0.003756   0.005767
   23  C  1 YZ    0.002074  -0.004185   0.000014  -0.002522   0.000814
   24  C  1 XX   -0.816620   0.749792  -0.866720  -0.417573  -0.789907
   25  C  1 YY   -1.572490  -1.404038   0.063687   0.518945  -1.045411
   26  C  1 ZZ   -1.920338  -0.996769  -0.081487   0.415779  -1.035686
   27  C  1 XY    0.635562   0.061619   0.126350   0.173653   0.160421
   28  C  1 XZ   -0.450290   0.920909  -0.387621  -0.288278   0.124361
   29  C  1 YZ    0.065909   0.278676   0.818797   0.039791   1.032299
   30  O  2  S   -0.008622   0.024211   0.038266   0.045528  -0.038360
   31  O  2  S   -0.017776   0.014611   0.050938   0.052106  -0.037958
   32  O  2  X   -0.002450  -0.185826   0.061556   0.048622  -0.019375
   33  O  2  Y    0.004962  -0.002738   0.116751  -0.173883  -0.082932
   34  O  2  Z   -0.069266   0.029498   0.058726  -0.001248   0.066772
   35  O  2  S   -0.197704  -1.341451  -1.044112  -1.832041   2.190650
   36  O  2  X    0.083602  -0.200242   0.095048   0.065179  -0.048781
   37  O  2  Y    0.027342  -0.009913   0.412918  -0.625957  -0.318244
   38  O  2  Z   -0.193088   0.160284   0.165461  -0.025574   0.256313
   39  O  2  S    0.641333  -1.779420   4.189434   8.164729  -9.503927
   40  O  2  X   -1.721042   3.049698  -0.595474  -1.249873   1.044899
   41  O  2  Y   -0.810044  -0.133998  -1.183441   1.107605   0.332360
   42  O  2  Z    0.612173  -0.189488  -0.217805  -0.024154  -0.522369
   43  O  2  S   -5.507860 -10.447533  -1.789601   0.084161  -1.526622
   44  O  2  X    2.793070   1.812459   0.279984  -1.311857   2.220895
   45  O  2  Y    0.179479   0.065506   0.777896  -0.916689  -0.370535
   46  O  2  Z    0.178978   0.773929   0.475400  -0.885560   1.496013
   47  O  2 XX   -0.033994  -0.017559  -0.018981  -0.033325   0.034354
   48  O  2 YY    0.011828  -0.024266  -0.014185  -0.023227   0.022251
   49  O  2 ZZ    0.014403  -0.029347  -0.014130  -0.022811   0.026887
   50  O  2 XY   -0.014166  -0.003971  -0.012516   0.006600  -0.001847
   51  O  2 XZ    0.007729  -0.015875   0.001593  -0.002342   0.002123
   52  O  2 YZ   -0.004298   0.002593   0.006065  -0.000002   0.009865
   53  O  2 XX   -0.049760  -1.039865  -0.388565  -0.751300   0.961413
   54  O  2 YY   -0.120074  -0.584611  -0.463951  -0.865887   1.074799
   55  O  2 ZZ   -0.095092  -0.571014  -0.484993  -0.868801   1.021115
   56  O  2 XY    0.024490   0.004410   0.007427   0.007712   0.028672
   57  O  2 XZ   -0.037751  -0.064835   0.042612   0.012431  -0.003845
   58  O  2 YZ   -0.018405   0.027489   0.060644   0.023587   0.087745
   59  H  3  S    0.001526  -0.008286   0.002820  -0.000248  -0.004570
   60  H  3  S    0.483434  -0.338300  -0.234676  -0.324664   0.593544
   61  H  3  S   -0.766727   0.389030   0.127390   1.096519  -1.589365
   62  H  3  S   -0.410871  -0.416258  -0.187228  -0.155247   0.270233
   63  H  3  X   -0.102788   0.101552  -0.058674  -0.034456   0.003378
   64  H  3  Y   -0.113430  -0.003362  -0.060415   0.107591   0.139417
   65  H  3  Z    0.163105  -0.032320  -0.011006   0.048865  -0.046867
   66  H  4  S   -0.010785   0.015620   0.015432  -0.016012   0.019970
   67  H  4  S    0.504382  -0.790160   0.540065   0.264932   0.058783
   68  H  4  S    0.019898   0.773781  -1.018176  -0.463271   0.219559
   69  H  4  S    0.371685  -0.042250   0.716461   0.805662  -0.910560
   70  H  4  X    0.023767  -0.087758  -0.043285   0.010654   0.026214
   71  H  4  Y   -0.073202  -0.006975   0.015985  -0.122300  -0.147828
   72  H  4  Z    0.081203   0.000647  -0.020415  -0.000177  -0.044548
   73  H  5  S   -0.000647  -0.013454   0.004386   0.011240   0.013827
   74  H  5  S   -0.286172  -0.278427  -0.964652  -0.411109  -1.174985
   75  H  5  S    0.352712   0.200976   0.568977   0.740542   0.205976
   76  H  5  S   -0.400528  -0.408537   0.044256  -0.316892   0.188139
   77  H  5  X    0.011607   0.036987  -0.039378   0.075558  -0.041633
   78  H  5  Y    0.008287   0.007602   0.016955   0.002776   0.045696
   79  H  5  Z   -0.009707   0.030227  -0.003676  -0.035335  -0.043063
   80  H  6  S   -0.008131  -0.003461  -0.002212   0.000496   0.004726
   81  H  6  S    0.202606  -0.187982  -0.886642   0.028352  -1.101804
   82  H  6  S    0.337155   0.178562   0.890393   0.026222   0.472647
   83  H  6  S   -0.483536  -0.604068  -1.276264  -0.331587   0.273637
   84  H  6  X   -0.036374   0.031804   0.129618  -0.085400  -0.068115
   85  H  6  Y    0.033304  -0.008811   0.007478   0.031210   0.027892
   86  H  6  Z    0.019316   0.006345   0.033001  -0.025229  -0.047592

                     41         42         43         44         45
                    1.2644     1.3065     1.4381     1.5348     1.5890
                     A          A          A          A          A   
    1  C  1  S    0.011909  -0.000581   0.004479  -0.019301  -0.043073
    2  C  1  S    0.025208  -0.012397   0.001910  -0.061388  -0.120440
    3  C  1  X   -0.070358  -0.023600  -0.071421  -0.143922  -0.055506
    4  C  1  Y   -0.015909   0.002422  -0.004567  -0.020281  -0.029927
    5  C  1  Z    0.005840   0.003492   0.003918  -0.011640   0.003655
    6  C  1  S   -2.278005  -0.967481  -0.639090  -2.004573  -2.795857
    7  C  1  X   -1.214271  -0.003783  -0.437005  -0.937966  -0.430697
    8  C  1  Y   -0.023276   0.014569   0.060148  -0.002976  -0.209159
    9  C  1  Z    0.073628  -0.055438  -0.007132  -0.327699  -0.045818
   10  C  1  S   -3.139396   3.377114  -0.219624  -0.742348  10.156361
   11  C  1  X   -3.312953  -0.263002  -0.959733  -2.618805   0.732242
   12  C  1  Y    0.318278  -0.031012  -0.461713   0.023190  -0.729695
   13  C  1  Z   -0.123873  -0.111212  -0.350809  -0.324776  -0.182105
   14  C  1  S   -0.694495  -1.488653   0.077167  -1.533445  -0.173860
   15  C  1  X    0.002811   0.698364   0.208265   0.151327   0.312160
   16  C  1  Y   -0.290136   0.044037   0.158871  -0.221315   0.131551
   17  C  1  Z   -0.723353   1.129055   0.137176  -0.173029   0.114219
   18  C  1 XX   -0.100346  -0.000834   0.015594  -0.042660  -0.034600
   19  C  1 YY   -0.000012  -0.025650  -0.028172  -0.028814  -0.044375
   20  C  1 ZZ    0.001693  -0.023375  -0.016058  -0.017184  -0.041104
   21  C  1 XY   -0.000979   0.006864   0.002515   0.004425  -0.027676
   22  C  1 XZ   -0.007123   0.003010   0.023026   0.023324   0.003634
   23  C  1 YZ   -0.002337   0.003867  -0.007637   0.012567   0.008831
   24  C  1 XX   -1.565552  -1.124617  -0.981829  -2.107170  -2.580766
   25  C  1 YY   -0.534437  -0.507055  -0.166894  -1.230359  -2.107001
   26  C  1 ZZ    0.068406  -0.310852  -0.400639  -1.323937  -2.159317
   27  C  1 XY    0.056171  -0.103356  -0.423153  -0.045908  -0.498207
   28  C  1 XZ    1.108339   0.670740  -0.235419  -0.721042  -0.150580
   29  C  1 YZ   -0.063368   0.577596   0.055818  -0.374265   0.317188
   30  O  2  S   -0.005399  -0.002597  -0.001361  -0.006040  -0.002802
   31  O  2  S   -0.010282  -0.002620  -0.013826  -0.013508  -0.001161
   32  O  2  X    0.059335   0.010501  -0.085160  -0.024315  -0.021152
   33  O  2  Y    0.011227   0.030389   0.042991   0.015260  -0.048418
   34  O  2  Z    0.074879  -0.173685   0.017679   0.009722  -0.005981
   35  O  2  S   -0.373455   0.132084  -0.371297  -0.165002   0.531525
   36  O  2  X    0.107962  -0.001654  -0.276306  -0.213098  -0.164978
   37  O  2  Y    0.031506   0.126984   0.084107   0.096797  -0.226642
   38  O  2  Z    0.301175  -0.659063   0.048132   0.039555  -0.018351
   39  O  2  S    5.663978  -0.037275   3.331847   5.184873  -0.739043
   40  O  2  X   -3.334573   0.278575  -0.322362  -2.016253  -0.048531
   41  O  2  Y   -0.147656  -0.250554   0.324358  -0.146551   1.215535
   42  O  2  Z   -2.980686   0.863481  -0.189578  -0.156562   0.025844
   43  O  2  S    3.340509  -1.013758  -0.252875   2.324866  -2.953582
   44  O  2  X    0.339367  -0.242998  -0.143436  -0.680261   1.247201
   45  O  2  Y    0.108567   0.101741  -0.011008   0.106701  -0.113050
   46  O  2  Z    1.282359  -1.253617   0.009039  -0.099650   0.346857
   47  O  2 XX   -0.020626   0.005143  -0.013014  -0.012241   0.015295
   48  O  2 YY    0.010796   0.005280  -0.003523   0.003978  -0.002116
   49  O  2 ZZ    0.003177  -0.004032  -0.005159   0.002120   0.000841
   50  O  2 XY   -0.000653  -0.002170   0.007703  -0.000117   0.008849
   51  O  2 XZ   -0.036874  -0.007425  -0.002324  -0.004594   0.005041
   52  O  2 YZ   -0.001359   0.005508   0.005205  -0.002718   0.004273
   53  O  2 XX    0.070539   0.010777  -0.389166  -0.016712   0.257717
   54  O  2 YY   -0.317883   0.021494  -0.200532   0.297879   0.186858
   55  O  2 ZZ   -0.091991   0.126559  -0.191250  -0.521308   0.295392
   56  O  2 XY    0.001837  -0.022753   0.125643  -0.073653  -0.198161
   57  O  2 XZ    0.104962  -0.040675  -0.032694  -0.025344   0.001199
   58  O  2 YZ   -0.014951   0.112270  -0.367237   0.188340  -0.173095
   59  H  3  S   -0.028442   0.004348  -0.011455  -0.052732   0.029455
   60  H  3  S    1.485594  -0.219792  -0.095365   0.325885  -0.078023
   61  H  3  S   -1.920755   0.661146   0.086496  -0.289476  -0.071054
   62  H  3  S    0.197671  -0.133802  -0.046839   0.112676  -0.175090
   63  H  3  X    0.063388   0.041140  -0.148891   0.365637  -0.081984
   64  H  3  Y   -0.042348   0.088162  -0.017665   0.012703  -0.767220
   65  H  3  Z    0.097813   0.128041   0.259900  -0.204976   0.010502
   66  H  4  S    0.049021  -0.004782  -0.034507  -0.080425  -0.029704
   67  H  4  S   -0.791541  -0.885510   0.149057   0.589430   0.240265
   68  H  4  S   -0.144080   0.619085  -0.152182  -0.669650  -0.374412
   69  H  4  S    0.012716   1.046331   0.115713   0.519430   0.344485
   70  H  4  X   -0.112377   0.126791   0.243738   0.328652   0.040686
   71  H  4  Y    0.031670  -0.015304  -0.271077   0.019599   0.229552
   72  H  4  Z    0.016394  -0.026290  -0.119759  -0.120357  -0.041916
   73  H  5  S    0.030704   0.018620   0.004549  -0.058168  -0.020554
   74  H  5  S   -0.072309  -0.766009   0.264236   0.440517  -0.197654
   75  H  5  S   -0.121876   0.531110  -0.200258  -0.363830   0.241250
[...]
   63  H  3  X    0.003495  -0.000783  -0.000055   0.004221   0.009509
   64  H  3  Y   -0.003827   0.003188  -0.000316  -0.003996  -0.014376
   65  H  3  Z    0.006813   0.002163   0.000441   0.007309   0.024284
   66  H  4  S    0.006364  -0.000009  -0.014967  -0.009013   0.035504
   67  H  4  S    0.031909  -0.000049  -0.007137   0.005960  -0.154891
   68  H  4  S    0.117772  -0.000168  -0.384860   0.038218   0.872746
   69  H  4  S   -2.633531   0.001731   4.231183   0.896552   5.139797
   70  H  4  X    0.005264   0.000645  -0.003747  -0.011420  -0.006674
   71  H  4  Y   -0.002943  -0.002666   0.004579  -0.004185   0.005971
   72  H  4  Z    0.006121  -0.001847  -0.007967   0.002043  -0.011033
   73  H  5  S    0.000113  -0.014930   0.009210  -0.006845  -0.019624
   74  H  5  S   -0.017135  -0.001512  -0.009884  -0.000599   0.106489
   75  H  5  S    0.035762  -0.356550   0.275125   0.134210  -0.729342
   76  H  5  S   -0.522964   4.177173  -2.363445  -1.362406  -2.923716
   77  H  5  X    0.001710  -0.005494   0.005395  -0.006968   0.006271
   78  H  5  Y    0.001058   0.000966  -0.002545  -0.004450  -0.008597
   79  H  5  Z    0.000271   0.007427  -0.002201  -0.004409   0.002321
   80  H  6  S    0.000126   0.014935   0.009206  -0.006863  -0.019646
   81  H  6  S   -0.017113   0.001579  -0.009841  -0.000543   0.106609
   82  H  6  S    0.036132   0.356464   0.274888   0.133935  -0.729921
   83  H  6  S   -0.526857  -4.178263  -2.361770  -1.360257  -2.927178
   84  H  6  X    0.001973   0.003139   0.003689  -0.008807   0.003572
   85  H  6  Y   -0.000012   0.008713   0.004463   0.003108   0.002530
   86  H  6  Z   -0.000477  -0.000765   0.002626   0.000793   0.009970

                     16         17         18         19
                    0.1592     0.1830     0.2717     0.2799
                     A          A          A          A   
    1  C  1  S   -0.000008  -0.030509   0.024351  -0.009978
    2  C  1  S   -0.000014  -0.053898   0.051276  -0.015447
    3  C  1  X   -0.002759  -0.035144  -0.024880   0.017874
    4  C  1  Y    0.011344  -0.007986  -0.011013   0.022155
    5  C  1  Z    0.007821  -0.000789   0.007332  -0.026330
    6  C  1  S   -0.000013   0.196199   1.685872   0.413920
    7  C  1  X   -0.010748  -0.052222   0.021420   0.057142
    8  C  1  Y    0.044153  -0.006704  -0.001910   0.025619
    9  C  1  Z    0.030415  -0.008680   0.010507  -0.017423
   10  C  1  S    0.000128  -0.304150  -7.981858  -1.398371
   11  C  1  X   -0.024911  -0.600323  -0.569615  -0.106788
   12  C  1  Y    0.102198  -0.142271  -0.053417   0.354552
   13  C  1  Z    0.070380  -0.005039  -0.122396  -0.558689
   14  C  1  S   -0.002640 -15.821995  -4.779219  -3.661805
   15  C  1  X    0.917495   1.068061  -0.228628  -0.402280
   16  C  1  Y   -3.772983  -0.227042   0.516291   0.712701
   17  C  1  Z   -2.600168   0.707257  -0.833798  -1.178306
   18  C  1 XX    0.000229   0.001337   0.020989  -0.002792
   19  C  1 YY   -0.007132   0.001295   0.018271   0.009539
   20  C  1 ZZ    0.006900   0.002513   0.016451   0.004569
   21  C  1 XY    0.000455  -0.000278   0.000161  -0.000689
   22  C  1 XZ   -0.001782   0.000743   0.000216  -0.005414
   23  C  1 YZ    0.002953  -0.001419   0.002780   0.005323
   24  C  1 XX    0.008101  -0.080518   0.997073   0.178561
   25  C  1 YY   -0.056485   0.037665   1.020886   0.198699
   26  C  1 ZZ    0.048285   0.046953   1.041953   0.221134
   27  C  1 XY   -0.011402  -0.029737  -0.025337  -0.006217
   28  C  1 XZ   -0.023157  -0.005779   0.027548   0.007512
   29  C  1 YZ    0.018045  -0.007268  -0.010969  -0.028754
   30  O  2  S    0.000003  -0.005987  -0.022077   0.022340
   31  O  2  S    0.000006  -0.008287  -0.043869   0.044159
   32  O  2  X   -0.004748   0.029673   0.030125  -0.005598
   33  O  2  Y    0.019509   0.002287   0.012816   0.057474
   34  O  2  Z    0.013436   0.007176  -0.007948  -0.085772
   35  O  2  S   -0.000017   0.079070  -0.016391   0.073264
   36  O  2  X   -0.010744   0.037387   0.012862   0.003140
   37  O  2  Y    0.044162   0.002803   0.003438   0.064367
   38  O  2  Z    0.030408   0.009160  -0.000409  -0.092691
   39  O  2  S   -0.000090  -0.044845   0.936738  -1.197859
   40  O  2  X    0.008035  -0.026485   0.168282  -0.007385
   41  O  2  Y   -0.033350  -0.053167   0.118657   0.203259
   42  O  2  Z   -0.023058   0.068057  -0.112950  -0.299159
   43  O  2  S    0.001314   3.155453   3.634198   1.202762
   44  O  2  X   -0.128114  -0.838060  -2.161026  -0.767847
   45  O  2  Y    0.527395  -0.120774  -1.246724  -0.425637
   46  O  2  Z    0.364239  -0.120473   1.049839   0.351212
   47  O  2 XX    0.000159   0.001405  -0.006317   0.005917
   48  O  2 YY   -0.001772   0.001800  -0.002943   0.003622
   49  O  2 ZZ    0.001612   0.001697  -0.003318   0.003724
   50  O  2 XY   -0.000133  -0.000318  -0.001051  -0.001737
   51  O  2 XZ   -0.000589   0.000192  -0.000144   0.002911
   52  O  2 YZ    0.000647   0.000339   0.000828   0.001733
   53  O  2 XX    0.000072   0.046804  -0.107161   0.114736
   54  O  2 YY   -0.000264   0.023799  -0.083017   0.111150
   55  O  2 ZZ    0.000186   0.028636  -0.090904   0.122919
   56  O  2 XY   -0.000108   0.004357  -0.006283  -0.010776
   57  O  2 XZ   -0.000160   0.004968  -0.004161   0.017730
   58  O  2 YZ    0.000072  -0.006351   0.011932  -0.006020
   59  H  3  S    0.000023  -0.002779  -0.016523   0.062604
   60  H  3  S    0.000166  -0.067699   0.024233  -0.175308
   61  H  3  S   -0.001380  -0.120622  -1.804155   2.412210
   62  H  3  S    0.000647   0.270482   1.769890  -0.720903
   63  H  3  X   -0.001276   0.007584  -0.026839   0.020918
   64  H  3  Y    0.005226   0.001208   0.005308  -0.017337
   65  H  3  Z    0.003559   0.000914  -0.017234   0.032704
   66  H  4  S   -0.000010   0.026162   0.011116  -0.024873
   67  H  4  S   -0.000042  -0.186659  -0.162946  -0.142612
   68  H  4  S    0.000049   1.626867   1.618740  -0.811391
   69  H  4  S   -0.000915   4.474408  -0.303164  -0.320274
   70  H  4  X    0.002240   0.002913  -0.007513   0.000237
   71  H  4  Y   -0.009213  -0.000534   0.010810   0.003931
   72  H  4  Z   -0.006348   0.001805  -0.018331  -0.005647
   73  H  5  S    0.033077   0.016514   0.015760   0.009166
   74  H  5  S   -0.171927  -0.154322   0.002250   0.083454
   75  H  5  S    1.028530   1.293665   1.517352   0.805812
   76  H  5  S    5.042128   3.039326   0.585257   1.280549
   77  H  5  X   -0.007112   0.005234  -0.001351   0.007863
   78  H  5  Y   -0.002121  -0.002348   0.005296   0.002984
   79  H  5  Z    0.011479  -0.002631   0.006574  -0.002321
   80  H  6  S   -0.033063   0.016524   0.015778   0.009038
   81  H  6  S    0.171893  -0.154308   0.002427   0.082668
   82  H  6  S   -1.027913   1.294162   1.518389   0.796921
   83  H  6  S   -5.039703   3.040021   0.581082   1.286263
   84  H  6  X    0.004731   0.003513   0.001871   0.007679
   85  H  6  Y    0.011929   0.004736  -0.007943   0.003657
   86  H  6  Z   -0.004738   0.002250  -0.002539  -0.001868

     ----------------------------------------------------------------
     PROPERTY VALUES FOR THE UHF   SELF-CONSISTENT FIELD WAVEFUNCTION
     ----------------------------------------------------------------

          -----------------
          ENERGY COMPONENTS
          -----------------

         WAVEFUNCTION NORMALIZATION =       1.0000000000

                ONE ELECTRON ENERGY =    -237.8049395031
                TWO ELECTRON ENERGY =      81.8951468761
           NUCLEAR REPULSION ENERGY =      40.8258692330
                                      ------------------
                       TOTAL ENERGY =    -115.0839233940

 ELECTRON-ELECTRON POTENTIAL ENERGY =      81.8951468761
  NUCLEUS-ELECTRON POTENTIAL ENERGY =    -352.8181800758
   NUCLEUS-NUCLEUS POTENTIAL ENERGY =      40.8258692330
                                      ------------------
             TOTAL POTENTIAL ENERGY =    -230.0971639667
               TOTAL KINETIC ENERGY =     115.0132405728
                 VIRIAL RATIO (V/T) =       2.0006145625

          ---------------------------------------
          MULLIKEN AND LOWDIN POPULATION ANALYSES
          ---------------------------------------

     ATOMIC MULLIKEN POPULATION IN EACH MOLECULAR ORBITAL
        ALPHA ORBITALS

                      1          2          3          4          5

                  1.000000   1.000000   1.000000   1.000000   1.000000

    1             0.000052   0.999944   0.128523   0.493990   0.241252
    2             0.999885   0.000044   0.782731   0.173589   0.482104
    3             0.000069  -0.000002   0.082835   0.046647   0.161867
    4             0.000002   0.000001   0.003307   0.101125   0.005026
    5            -0.000004   0.000006   0.001305   0.092325   0.054993
    6            -0.000004   0.000006   0.001300   0.092324   0.054757

                      6          7          8          9

                  1.000000   1.000000   1.000000   1.000000

    1             0.392456   0.366194   0.262699   0.147720
    2             0.330387   0.441340   0.403002   0.630690
    3             0.003154   0.008570   0.049908   0.007394
    4             0.001619   0.180889   0.155557   0.000592
    5             0.135978   0.001513   0.064679   0.106629
    6             0.136406   0.001493   0.064156   0.106974

     ATOMIC MULLIKEN POPULATION IN EACH MOLECULAR ORBITAL
         BETA ORBITALS

                      1          2          3          4          5

                  1.000000   1.000000   1.000000   1.000000   1.000000

    1             0.000052   0.999944   0.128523   0.493990   0.241252
    2             0.999885   0.000044   0.782731   0.173589   0.482104
    3             0.000069  -0.000002   0.082835   0.046647   0.161867
    4             0.000002   0.000001   0.003307   0.101125   0.005026
    5            -0.000004   0.000006   0.001305   0.092325   0.054993
    6            -0.000004   0.000006   0.001300   0.092324   0.054757

                      6          7          8          9

                  1.000000   1.000000   1.000000   1.000000

    1             0.392456   0.366194   0.262699   0.147720
    2             0.330387   0.441340   0.403002   0.630690
    3             0.003154   0.008570   0.049908   0.007394
    4             0.001619   0.180889   0.155557   0.000592
    5             0.135978   0.001513   0.064679   0.106629
    6             0.136406   0.001493   0.064156   0.106974

     ATOMIC SPIN POPULATION (ALPHA MINUS BETA)
       ATOM         MULL.POP.                    LOW.POP.
    1 C             0.000000                     0.000000
    2 O             0.000000                     0.000000
    3 H             0.000000                     0.000000
    4 H             0.000000                     0.000000
    5 H             0.000000                     0.000000
    6 H             0.000000                     0.000000


          ********* ALL ELECTRONS ********

               ----- POPULATIONS IN EACH AO -----
                             MULLIKEN      LOWDIN
              1  C  1  S      1.10360     1.04557
              2  C  1  S      0.89011     0.90631
              3  C  1  X      0.15892     0.15494
              4  C  1  Y      0.21042     0.20349
              5  C  1  Z      0.21487     0.20753
              6  C  1  S      0.70413     0.27338
              7  C  1  X      0.41001     0.40458
              8  C  1  Y      0.51401     0.47783
              9  C  1  Z      0.51982     0.48614
             10  C  1  S      0.32895     0.17672
             11  C  1  X      0.13422     0.19857
             12  C  1  Y      0.29550     0.32649
             13  C  1  Z      0.31194     0.33414
             14  C  1  S      0.05186     0.04119
             15  C  1  X     -0.00146     0.02004
             16  C  1  Y      0.00499     0.03854
             17  C  1  Z      0.00757     0.03903
             18  C  1 XX      0.01755     0.11426
             19  C  1 YY      0.01327     0.10795
             20  C  1 ZZ      0.01226     0.10706
             21  C  1 XY      0.00440     0.00536
             22  C  1 XZ      0.00546     0.00671
             23  C  1 YZ      0.00242     0.00261
             24  C  1 XX      0.02857     0.12597
             25  C  1 YY      0.03076     0.12163
             26  C  1 ZZ      0.03023     0.10491
             27  C  1 XY      0.02633     0.10316
             28  C  1 XZ      0.03167     0.12088
             29  C  1 YZ      0.00328     0.01849
             30  O  2  S      1.08357     1.03098
             31  O  2  S      0.91194     0.92705
             32  O  2  X      0.26039     0.26297
             33  O  2  Y      0.35455     0.36165
             34  O  2  Z      0.31915     0.32238
             35  O  2  S      0.99232     0.39028
             36  O  2  X      0.63487     0.59842
             37  O  2  Y      0.78078     0.74980
             38  O  2  Z      0.71616     0.67878
             39  O  2  S      0.62251     0.26829
             40  O  2  X      0.42572     0.41713
             41  O  2  Y      0.61228     0.51817
             42  O  2  Z      0.51918     0.46930
             43  O  2  S      0.04098     0.08066
             44  O  2  X     -0.00316     0.08369
             45  O  2  Y      0.03189     0.10063
             46  O  2  Z      0.01212     0.09211
             47  O  2 XX      0.01124     0.15214
             48  O  2 YY      0.00754     0.14700
             49  O  2 ZZ      0.00968     0.14832
             50  O  2 XY      0.00048     0.00044
             51  O  2 XZ      0.00048     0.00035
             52  O  2 YZ      0.00061     0.00055
             53  O  2 XX      0.05734     0.15166
             54  O  2 YY      0.03275     0.12974
             55  O  2 ZZ      0.03731     0.13448
             56  O  2 XY      0.00601     0.01520
             57  O  2 XZ      0.00470     0.01867
             58  O  2 YZ      0.00417     0.00638
             59  H  3  S      0.27069     0.26486
             60  H  3  S      0.37702     0.29838
             61  H  3  S      0.00626     0.07171
             62  H  3  S      0.00162     0.01766
             63  H  3  X      0.01765     0.04089
             64  H  3  Y      0.02123     0.05776
             65  H  3  Z      0.02640     0.06413
             66  H  4  S      0.27592     0.27178
             67  H  4  S      0.53222     0.39665
             68  H  4  S      0.06585     0.12712
             69  H  4  S     -0.00293     0.02444
             70  H  4  X      0.00403     0.01093
             71  H  4  Y      0.00728     0.01707
             72  H  4  Z      0.01386     0.02580
             73  H  5  S      0.27594     0.27160
             74  H  5  S      0.53636     0.40162
             75  H  5  S      0.07739     0.13343
             76  H  5  S      0.00073     0.02480
             77  H  5  X      0.00549     0.01341
             78  H  5  Y      0.00549     0.01521
             79  H  5  Z      0.01344     0.02514
             80  H  6  S      0.27594     0.27503
             81  H  6  S      0.53637     0.40622
             82  H  6  S      0.07737     0.13387
             83  H  6  S      0.00071     0.02482
             84  H  6  X      0.00209     0.00892
             85  H  6  Y      0.01819     0.03167
             86  H  6  Z      0.00414     0.01438

          ----- MULLIKEN ATOMIC OVERLAP POPULATIONS -----
          (OFF-DIAGONAL ELEMENTS NEED TO BE MULTIPLIED BY 2)

             1           2           3           4           5

    1    4.6041466
    2    0.2063341   8.1177288
    3   -0.0277762   0.2944729   0.4619681
    4    0.4363642  -0.0564069   0.0096012   0.5837251
    5    0.4232848  -0.0372539  -0.0087072  -0.0385161   0.6216651
    6    0.4233074  -0.0373259  -0.0086760  -0.0385318  -0.0456236

             6

    6    0.6216726

          TOTAL MULLIKEN AND LOWDIN ATOMIC POPULATIONS
       ATOM         MULL.POP.    CHARGE          LOW.POP.     CHARGE
    1 C             6.065661   -0.065661         6.273484   -0.273484
    2 O             8.487549   -0.487549         8.257216   -0.257216
    3 H             0.720883    0.279117         0.815394    0.184606
    4 H             0.896236    0.103764         0.873783    0.126217
    5 H             0.914849    0.085151         0.885215    0.114785
    6 H             0.914823    0.085177         0.894908    0.105092

          -------------------------------
          BOND ORDER AND VALENCE ANALYSIS     BOND ORDER THRESHOLD=0.050
          -------------------------------

                   BOND                       BOND                       BOND
  ATOM PAIR DIST  ORDER      ATOM PAIR DIST  ORDER      ATOM PAIR DIST  ORDER
    1   2  1.399  0.914        1   4  1.081  1.001        1   5  1.086  0.989
    1   6  1.086  0.989        2   3  0.941  0.919

                       TOTAL       BONDED        FREE
      ATOM            VALENCE     VALENCE     VALENCE
    1 C                 3.899       3.899       0.000
    2 O                 1.772       1.772      -0.000
    3 H                 0.927       0.927      -0.000
    4 H                 0.945       0.945       0.000
    5 H                 0.939       0.939      -0.000
    6 H                 0.939       0.939      -0.000

          -----------------------------------------
          ATOMIC SPIN DENSITY AT THE NUCLEUS (A.U.)
          -----------------------------------------
                            SPIN DENS    ALPHA DENS     BETA DENS
    1  C            6.0     0.0000000      59.69878      59.69878
    2  O            8.0     0.0000000     147.41143     147.41143
    3  H            1.0     0.0000000       0.21567       0.21567
    4  H            1.0     0.0000000       0.22167       0.22167
    5  H            1.0     0.0000000       0.22187       0.22187
    6  H            1.0     0.0000000       0.22187       0.22187

          ---------------------
          ELECTROSTATIC MOMENTS
          ---------------------

 POINT   1           X           Y           Z (BOHR)    CHARGE
                 1.318406    0.275122   -0.094088        0.00 (A.U.)
         DX          DY          DZ         /D/  (DEBYE)
    -0.854442   -1.044360    1.218704    1.818241
 ...... END OF PROPERTY EVALUATION ......
 STEP CPU TIME =     0.03 TOTAL CPU TIME =       71.8 (    1.2 MIN)
 TOTAL WALL CLOCK TIME=       72.8 SECONDS, CPU UTILIZATION IS  98.65%
  $VIB   
          IVIB=   0 IATOM=   0 ICOORD=   0 E=     -115.0839233940
  2.758783759E-05-2.674399700E-06 3.681861000E-05 9.328258396E-06-2.145738779E-05
 -7.625478106E-06-2.892811035E-05 8.753095060E-06-1.301672746E-05-1.067092336E-05
  1.652646543E-05-1.014836412E-05-1.366467951E-05 3.914725270E-06-3.182759953E-06
  1.634762109E-05-5.062499049E-06-2.845280510E-06
 -8.544420117E-01-1.044360479E+00 1.218704049E+00
 ......END OF GEOMETRY SEARCH......
 STEP CPU TIME =     0.00 TOTAL CPU TIME =       71.8 (    1.2 MIN)
 TOTAL WALL CLOCK TIME=       72.8 SECONDS, CPU UTILIZATION IS  98.65%
               991612  WORDS OF DYNAMIC MEMORY USED
 EXECUTION OF GAMESS TERMINATED NORMALLY Wed Mar  9 22:03:02 2016
 DDI: 263640 bytes (0.3 MB / 0 MWords) used by master data server.

 ----------------------------------------
 CPU timing information for all processes
 ========================================
 0: 66.963 + 4.842 = 71.805
 ----------------------------------------
 ddikick.x: exited gracefully.
----- accounting info -----
Files used on the master node andre-mint were:
-rw-r--r-- 1 andrepd andrepd  1153319 Mar  9 22:03 ./7b.dat
-rw-r--r-- 1 andrepd andrepd      376 Mar  9 22:01 ./7b.F05
-rw-r--r-- 1 andrepd andrepd 81907280 Mar  9 22:03 ./7b.F08
-rw-r--r-- 1 andrepd andrepd  2224960 Mar  9 22:03 ./7b.F10
-rw-r--r-- 1 andrepd andrepd      376 Mar  9 22:01 ./7b.inp
-rw-r--r-- 1 andrepd andrepd   466770 Mar  9 22:03 ./7b.out
Qua Mar  9 22:03:05 WET 2016
0.0u 0.0s 1:15.87 0.0% 0+0k 0+8io 0pf+0w
