----- GAMESS execution script 'rungms' -----
This job is running on host andre-mint
under operating system Linux at Qui Mar 10 23:51:17 WET 2016
Available scratch disk space (Kbyte units) at beginning of the job is
Filesystem     1K-blocks     Used Available Use% Mounted on
/dev/sda5       72784020 70996988    289068 100% /home
GAMESS temporary binary files will be written to .
GAMESS supplementary output files will be written to .
Copying input file 7_CH3OH_b.inp to your run's scratch directory...

 Distributed Data Interface kickoff program.
 Initiating 1 compute processes on 1 nodes to run the following command:
 /home/andrepd/Development/gamess/gamess//gamess.69.x 7_CH3OH_b 

          ******************************************************
          *         GAMESS VERSION =  5 DEC 2014 (R1)          *
          *             FROM IOWA STATE UNIVERSITY             *
          * M.W.SCHMIDT, K.K.BALDRIDGE, J.A.BOATZ, S.T.ELBERT, *
          *   M.S.GORDON, J.H.JENSEN, S.KOSEKI, N.MATSUNAGA,   *
          *          K.A.NGUYEN, S.J.SU, T.L.WINDUS,           *
          *       TOGETHER WITH M.DUPUIS, J.A.MONTGOMERY       *
          *         J.COMPUT.CHEM.  14, 1347-1363(1993)        *
          **************** 64 BIT LINUX VERSION ****************

  SINCE 1993, STUDENTS AND POSTDOCS WORKING AT IOWA STATE UNIVERSITY
  AND ALSO IN THEIR VARIOUS JOBS AFTER LEAVING ISU HAVE MADE IMPORTANT
  CONTRIBUTIONS TO THE CODE:
     IVANA ADAMOVIC, CHRISTINE AIKENS, YURI ALEXEEV, POOJA ARORA,
     ANDREY ASADCHEV, ROB BELL, PRADIPTA BANDYOPADHYAY, JONATHAN BENTZ,
     BRETT BODE, KURT BRORSEN, CALEB CARLIN, GALINA CHABAN, WEI CHEN,
     CHEOL HO CHOI, PAUL DAY, ALBERT DEFUSCO, NUWAN DESILVA, TIM DUDLEY,
     DMITRI FEDOROV, GRAHAM FLETCHER, MARK FREITAG, KURT GLAESEMANN,
     DAN KEMP, GRANT MERRILL, NORIYUKI MINEZAWA, JONATHAN MULLIN,
     TAKESHI NAGATA, SEAN NEDD, HEATHER NETZLOFF, BOSILJKA NJEGIC, RYAN OLSON,
     MIKE PAK, SPENCER PRUITT, LUKE ROSKOP, JIM SHOEMAKER, LYUDMILA SLIPCHENKO,
     TONY SMITH, SAROM SOK, JIE SONG, TETSUYA TAKETSUGU, SIMON WEBB,
     PENG XU, SOOHAENG YOO, FEDERICO ZAHARIEV

  ADDITIONAL CODE HAS BEEN PROVIDED BY COLLABORATORS IN OTHER GROUPS:
     IOWA STATE UNIVERSITY:
          JOE IVANIC, AARON WEST, LAIMUTIS BYTAUTAS, KLAUS RUEDENBERG
     UNIVERSITY OF TOKYO: KIMIHIKO HIRAO, TAKAHITO NAKAJIMA,
          TAKAO TSUNEDA, MUNEAKI KAMIYA, SUSUMU YANAGISAWA,
          KIYOSHI YAGI, MAHITO CHIBA, SEIKEN TOKURA, NAOAKI KAWAKAMI
     UNIVERSITY OF AARHUS: FRANK JENSEN
     UNIVERSITY OF IOWA: VISVALDAS KAIRYS, HUI LI
     NATIONAL INST. OF STANDARDS AND TECHNOLOGY: WALT STEVENS, DAVID GARMER
     UNIVERSITY OF PISA: BENEDETTA MENNUCCI, JACOPO TOMASI
     UNIVERSITY OF MEMPHIS: HENRY KURTZ, PRAKASHAN KORAMBATH
     UNIVERSITY OF ALBERTA: TOBY ZENG, MARIUSZ KLOBUKOWSKI
     UNIVERSITY OF NEW ENGLAND: MARK SPACKMAN
     MIE UNIVERSITY: HIROAKI UMEDA
     NAT. INST. OF ADVANCED INDUSTRIAL SCIENCE AND TECHNOLOGY: KAZUO KITAURA
     MICHIGAN STATE UNIVERSITY:
          KAROL KOWALSKI, MARTA WLOCH, JEFFREY GOUR, JESSE LUTZ,
          WEI LI, PIOTR PIECUCH
     UNIVERSITY OF SILESIA: MONIKA MUSIAL, STANISLAW KUCHARSKI
     FACULTES UNIVERSITAIRES NOTRE-DAME DE LA PAIX:
          OLIVIER QUINET, BENOIT CHAMPAGNE
     UNIVERSITY OF CALIFORNIA - SANTA BARBARA: BERNARD KIRTMAN
     INSTITUTE FOR MOLECULAR SCIENCE:
          KAZUYA ISHIMURA, MICHIO KATOUDA, AND SHIGERU NAGASE
     UNIVERSITY OF NOTRE DAME: ANNA POMOGAEVA, DAN CHIPMAN
     KYUSHU UNIVERSITY:
          HARUYUKI NAKANO,
          FENG LONG GU, JACEK KORCHOWIEC, MARCIN MAKOWSKI, AND YURIKO AOKI,
          HIROTOSHI MORI AND EISAKU MIYOSHI
     PENNSYLVANIA STATE UNIVERSITY:
          TZVETELIN IORDANOV, CHET SWALINA, JONATHAN SKONE,
          SHARON HAMMES-SCHIFFER
     WASEDA UNIVERSITY:
          MASATO KOBAYASHI, TOMOKO AKAMA, TSUGUKI TOUMA,
          TAKESHI YOSHIKAWA, YASUHIRO IKABATA, HIROMI NAKAI
     NANJING UNIVERSITY: SHUHUA LI
     UNIVERSITY OF NEBRASKA:
          PEIFENG SU, DEJUN SI, NANDUN THELLAMUREGE, YALI WANG, HUI LI
     UNIVERSITY OF ZURICH: ROBERTO PEVERATI, KIM BALDRIDGE
     N. COPERNICUS UNIVERSITY AND JACKSON STATE UNIVERSITY:
          MARIA BARYSZ
     UNIVERSITY OF COPENHAGEN: CASPER STEINMANN
     TOKYO INSTITUTE OF TECHNOLOGY: HIROYA NAKATA
     NAGOYA UNIVERSITY: YOSHIO NISHIMOTO, STEPHAN IRLE

 EXECUTION OF GAMESS BEGUN Thu Mar 10 23:51:17 2016

            ECHO OF THE FIRST FEW INPUT CARDS -
 INPUT CARD>!   File created by MacMolPlt 7.6.2                                             
 INPUT CARD> $CONTRL SCFTYP=UHF RUNTYP=OPTIMIZE MAXIT=200 MULT=1 $END                       
 INPUT CARD> $BASIS GBASIS=N311 NGAUSS=6 NDFUNC=1 NPFUNC=1 DIFFSP=.TRUE. DIFFS=.TRUE. $END  
 INPUT CARD>! $SCF DIRSCF=.TRUE. $END                                                       
 INPUT CARD> $DATA                                                                          
 INPUT CARD>CH3OH                                                                           
 INPUT CARD>C1                                                                              
 INPUT CARD>C  6.0  0.00  0.00  0.00                                                        
 INPUT CARD>O  8.0  1.00  0.00  0.20                                                        
 INPUT CARD>H  1.0  2.00  0.00  1.00                                                        
 INPUT CARD>H  1.0  -1.00  0.00  -1.00                                                      
 INPUT CARD>H  1.0  0.00  1.00  1.00                                                        
 INPUT CARD>H  1.0  0.00  -1.00  -1.00                                                      
 INPUT CARD> $END                                                                           
    1000000 WORDS OF MEMORY AVAILABLE

     BASIS OPTIONS
     -------------
     GBASIS=N311         IGAUSS=       6      POLAR=POPN311 
     NDFUNC=       1     NFFUNC=       0     DIFFSP=       T
     NPFUNC=       1      DIFFS=       T     BASNAM=        


     RUN TITLE
     ---------
 CH3OH                                                                           

 THE POINT GROUP OF THE MOLECULE IS C1      
 THE ORDER OF THE PRINCIPAL AXIS IS     0

 ATOM      ATOMIC                      COORDINATES (BOHR)
           CHARGE         X                   Y                   Z
 C           6.0     0.0000000000        0.0000000000        0.0000000000
 O           8.0     1.8897259877        0.0000000000        0.3779451975
 H           1.0     3.7794519754        0.0000000000        1.8897259877
 H           1.0    -1.8897259877        0.0000000000       -1.8897259877
 H           1.0     0.0000000000        1.8897259877        1.8897259877
 H           1.0     0.0000000000       -1.8897259877       -1.8897259877

          INTERNUCLEAR DISTANCES (ANGS.)
          ------------------------------

                1 C          2 O          3 H          4 H          5 H     

   1 C       0.0000000    1.0198039 *  2.2360680 *  1.4142136 *  1.4142136 *
   2 O       1.0198039 *  0.0000000    1.2806248 *  2.3323808 *  1.6248077 *
   3 H       2.2360680 *  1.2806248 *  0.0000000    3.6055513    2.2360680 *
   4 H       1.4142136 *  2.3323808 *  3.6055513    0.0000000    2.4494897 *
   5 H       1.4142136 *  1.6248077 *  2.2360680 *  2.4494897 *  0.0000000  
   6 H       1.4142136 *  1.8547237 *  3.0000000 *  1.4142136 *  2.8284271 *

                6 H     

   1 C       1.4142136 *
   2 O       1.8547237 *
   3 H       3.0000000 *
   4 H       1.4142136 *
   5 H       2.8284271 *
   6 H       0.0000000  

  * ... LESS THAN  3.000


     ATOMIC BASIS SET
     ----------------
 THE CONTRACTED PRIMITIVE FUNCTIONS HAVE BEEN UNNORMALIZED
 THE CONTRACTED BASIS FUNCTIONS ARE NOW NORMALIZED TO UNITY

  SHELL TYPE  PRIMITIVE        EXPONENT          CONTRACTION COEFFICIENT(S)

 C         

      1   S       1          4563.2400000    0.001966650249
      1   S       2           682.0240000    0.015230601932
      1   S       3           154.9730000    0.076126909656
      1   S       4            44.4553000    0.260801033080
      1   S       5            13.0290000    0.616462078191
      1   S       6             1.8277300    0.221006028032

      2   L       7            20.9642000    0.114660080729    0.040248692673
      2   L       8             4.8033100    0.919999647749    0.237593956746
      2   L       9             1.4593300   -0.003030682134    0.815853851473

      3   L      10             0.4834560    1.000000000000    1.000000000000

      4   L      11             0.1455850    1.000000000000    1.000000000000

      5   L      12             0.0438000    1.000000000000    1.000000000000

      6   D      13             0.6260000    1.000000000000

 O         

      7   S      14          8588.5000000    0.001895150083
      7   S      15          1297.2300000    0.014385900631
      7   S      16           299.2960000    0.070732003103
      7   S      17            87.3771000    0.240001010530
      7   S      18            25.6789000    0.594797026097
      7   S      19             3.7400400    0.280802012320

      8   L      20            42.1175000    0.113889012440    0.036511397380
      8   L      21             9.6283700    0.920811100576    0.237152982984
      8   L      22             2.8533200   -0.003274470358    0.819701941186

      9   L      23             0.9056610    1.000000000000    1.000000000000

     10   L      24             0.2556110    1.000000000000    1.000000000000

     11   L      25             0.0845000    1.000000000000    1.000000000000

     12   D      26             1.2920000    1.000000000000

 H         

     13   S      27            33.8650000    0.025493814541
     13   S      28             5.0947900    0.190373108582
     13   S      29             1.1587900    0.852161486043

     14   S      30             0.3258400    1.000000000000

     15   S      31             0.1027410    1.000000000000

     16   S      32             0.0360000    1.000000000000

     17   P      33             0.7500000    1.000000000000

 H         

     18   S      34            33.8650000    0.025493814541
     18   S      35             5.0947900    0.190373108582
     18   S      36             1.1587900    0.852161486043

     19   S      37             0.3258400    1.000000000000

     20   S      38             0.1027410    1.000000000000

     21   S      39             0.0360000    1.000000000000

     22   P      40             0.7500000    1.000000000000

 H         

     23   S      41            33.8650000    0.025493814541
     23   S      42             5.0947900    0.190373108582
     23   S      43             1.1587900    0.852161486043

     24   S      44             0.3258400    1.000000000000

     25   S      45             0.1027410    1.000000000000

     26   S      46             0.0360000    1.000000000000

     27   P      47             0.7500000    1.000000000000

 H         

     28   S      48            33.8650000    0.025493814541
     28   S      49             5.0947900    0.190373108582
     28   S      50             1.1587900    0.852161486043

     29   S      51             0.3258400    1.000000000000

     30   S      52             0.1027410    1.000000000000

     31   S      53             0.0360000    1.000000000000

     32   P      54             0.7500000    1.000000000000

 TOTAL NUMBER OF BASIS SET SHELLS             =   32
 NUMBER OF CARTESIAN GAUSSIAN BASIS FUNCTIONS =   74
 NUMBER OF ELECTRONS                          =   18
 CHARGE OF MOLECULE                           =    0
 SPIN MULTIPLICITY                            =    1
 NUMBER OF OCCUPIED ORBITALS (ALPHA)          =    9
 NUMBER OF OCCUPIED ORBITALS (BETA )          =    9
 TOTAL NUMBER OF ATOMS                        =    6
 THE NUCLEAR REPULSION ENERGY IS       44.4084353222

     $CONTRL OPTIONS
     ---------------
 SCFTYP=UHF          RUNTYP=OPTIMIZE     EXETYP=RUN     
 MPLEVL=       0     CITYP =NONE         CCTYP =NONE         VBTYP =NONE    
 DFTTYP=NONE         TDDFT =NONE    
 MULT  =       1     ICHARG=       0     NZVAR =       0     COORD =UNIQUE  
 PP    =NONE         RELWFN=NONE         LOCAL =NONE         NUMGRD=       F
 ISPHER=      -1     NOSYM =       0     MAXIT =     200     UNITS =ANGS    
 PLTORB=       F     MOLPLT=       F     AIMPAC=       F     FRIEND=        
 NPRINT=       7     IREST =       0     GEOM  =INPUT   
 NORMF =       0     NORMP =       0     ITOL  =      20     ICUT  =       9
 INTTYP=BEST         GRDTYP=BEST         QMTTOL= 1.0E-06

     $SYSTEM OPTIONS
     ---------------
  REPLICATED MEMORY=     1000000 WORDS (ON EVERY NODE).
 DISTRIBUTED MEMDDI=           0 MILLION WORDS IN AGGREGATE,
 MEMDDI DISTRIBUTED OVER   1 PROCESSORS IS           0 WORDS/PROCESSOR.
 TOTAL MEMORY REQUESTED ON EACH PROCESSOR=     1000000 WORDS.
 TIMLIM=      525600.00 MINUTES, OR     365.0 DAYS.
 PARALL= F  BALTYP=  DLB     KDIAG=    0  COREFL= F
 MXSEQ2=     300 MXSEQ3=     150  mem10=         0

          ----------------
          PROPERTIES INPUT
          ----------------

     MOMENTS            FIELD           POTENTIAL          DENSITY
 IEMOM =       1   IEFLD =       0   IEPOT =       0   IEDEN =       0
 WHERE =COMASS     WHERE =NUCLEI     WHERE =NUCLEI     WHERE =NUCLEI  
 OUTPUT=BOTH       OUTPUT=BOTH       OUTPUT=BOTH       OUTPUT=BOTH    
 IEMINT=       0   IEFINT=       0                     IEDINT=       0
                                                       MORB  =       0
          EXTRAPOLATION IN EFFECT
          SOSCF IN EFFECT
          DIIS or SOSCF will be reset if energy rises
 ORBITAL PRINTING OPTION: NPREO=     1    74     2     1

     -------------------------------
     INTEGRAL TRANSFORMATION OPTIONS
     -------------------------------
     NWORD  =            0
     CUTOFF = 1.0E-09     MPTRAN =       0
     DIRTRF =       F     AOINTS =DUP     

          ----------------------
          INTEGRAL INPUT OPTIONS
          ----------------------
 NOPK  =       1 NORDER=       0 SCHWRZ=       T

     ------------------------------------------
     THE POINT GROUP IS C1 , NAXIS= 0, ORDER= 1
     ------------------------------------------

     DIMENSIONS OF THE SYMMETRY SUBSPACES ARE
 A   =   74

 ..... DONE SETTING UP THE RUN .....
 STEP CPU TIME =     0.01 TOTAL CPU TIME =        0.0 (    0.0 MIN)
 TOTAL WALL CLOCK TIME=        0.1 SECONDS, CPU UTILIZATION IS  16.67%


          -----------------------------
          STATIONARY POINT LOCATION RUN
          -----------------------------

 OBTAINING INITIAL HESSIAN, HESS=GUESS   
 CARTESIAN COORDINATE OPTIMIZATION USING BADGER'S RULE FORCE CONSTANT GUESS

          PARAMETERS CONTROLLING GEOMETRY SEARCH ARE
          METHOD =QA                  UPHESS =BFGS    
          NNEG   =         0          NFRZ   =         0
          NSTEP  =        50          IFOLOW =         1
          HESS   =GUESS               RESTAR =         F
          IHREP  =         0          HSSEND =         F
          NPRT   =         0          NPUN   =         0
          OPTTOL = 1.000E-04          RMIN   = 1.500E-03
          RMAX   = 1.000E-01          RLIM   = 7.000E-02
          DXMAX  = 3.000E-01          PURIFY =         F
          MOVIE  =         F          TRUPD  =         T
          TRMAX  = 5.000E-01          TRMIN  = 5.000E-02
          ITBMAT =         5          STPT   =         F
          STSTEP = 1.000E-02          PROJCT=          T

 BEGINNING GEOMETRY SEARCH POINT NSERCH=   0 ...

 COORDINATES OF ALL ATOMS ARE (ANGS)
   ATOM   CHARGE       X              Y              Z
 ------------------------------------------------------------
 C           6.0   0.0000000000   0.0000000000   0.0000000000
 O           8.0   1.0000000000   0.0000000000   0.2000000000
 H           1.0   2.0000000000   0.0000000000   1.0000000000
 H           1.0  -1.0000000000   0.0000000000  -1.0000000000
 H           1.0   0.0000000000   1.0000000000   1.0000000000
 H           1.0   0.0000000000  -1.0000000000  -1.0000000000

          ********************
          1 ELECTRON INTEGRALS
          ********************
 ...... END OF ONE-ELECTRON INTEGRALS ......
 STEP CPU TIME =     0.00 TOTAL CPU TIME =        0.0 (    0.0 MIN)
 TOTAL WALL CLOCK TIME=        0.1 SECONDS, CPU UTILIZATION IS  16.67%

          -------------
          GUESS OPTIONS
          -------------
          GUESS =HUCKEL            NORB  =       0          NORDER=       0
          MIX   =       F          PRTMO =       F          PUNMO =       F
          TOLZ  = 1.0E-08          TOLE  = 1.0E-05
          SYMDEN=       F          PURIFY=       F

 INITIAL GUESS ORBITALS GENERATED BY HUCKEL   ROUTINE.
 HUCKEL GUESS REQUIRES     44856 WORDS.

 SYMMETRIES FOR INITIAL GUESS ORBITALS FOLLOW.  ALPHA SET(S).
     9 ORBITALS ARE OCCUPIED (    2 CORE ORBITALS).
     3=A        4=A        5=A        6=A        7=A        8=A        9=A   
    10=A       11=A       12=A       13=A       14=A       15=A       16=A   
    17=A       18=A       19=A   

 SYMMETRIES FOR INITIAL GUESS ORBITALS FOLLOW.   BETA SET(S).
     9 ORBITALS ARE OCCUPIED (    2 CORE ORBITALS).
     3=A        4=A        5=A        6=A        7=A        8=A        9=A   
    10=A       11=A       12=A       13=A       14=A       15=A       16=A   
    17=A       18=A       19=A   
 ...... END OF INITIAL ORBITAL SELECTION ......
 STEP CPU TIME =     0.00 TOTAL CPU TIME =        0.0 (    0.0 MIN)
 TOTAL WALL CLOCK TIME=        0.1 SECONDS, CPU UTILIZATION IS  14.29%

                    ----------------------
                    AO INTEGRAL TECHNOLOGY
                    ----------------------
     S,P,L SHELL ROTATED AXIS INTEGRALS, REPROGRAMMED BY
        KAZUYA ISHIMURA (IMS) AND JOSE SIERRA (SYNSTAR).
     S,P,D,L SHELL ROTATED AXIS INTEGRALS PROGRAMMED BY
        KAZUYA ISHIMURA (INSTITUTE FOR MOLECULAR SCIENCE).
     S,P,D,F,G SHELL TO TOTAL QUARTET ANGULAR MOMENTUM SUM 5,
        ERIC PROGRAM BY GRAHAM FLETCHER (ELORET AND NASA ADVANCED
        SUPERCOMPUTING DIVISION, AMES RESEARCH CENTER).
     S,P,D,F,G,L SHELL GENERAL RYS QUADRATURE PROGRAMMED BY
        MICHEL DUPUIS (PACIFIC NORTHWEST NATIONAL LABORATORY).

          --------------------
          2 ELECTRON INTEGRALS
          --------------------

 THE -PK- OPTION IS OFF, THE INTEGRALS ARE NOT IN SUPERMATRIX FORM.
 STORING   15000 INTEGRALS/RECORD ON DISK, USING 12 BYTES/INTEGRAL.
 TWO ELECTRON INTEGRAL EVALUATION REQUIRES   90924 WORDS OF MEMORY.
 SCHWARZ INEQUALITY OVERHEAD:      2775 INTEGRALS, T=        0.00
 II,JST,KST,LST =  1  1  1  1 NREC =         1 INTLOC =    1
 II,JST,KST,LST =  2  1  1  1 NREC =         1 INTLOC =    2
 II,JST,KST,LST =  3  1  1  1 NREC =         1 INTLOC =   34
 II,JST,KST,LST =  4  1  1  1 NREC =         1 INTLOC =  214
 II,JST,KST,LST =  5  1  1  1 NREC =         1 INTLOC =  776
 II,JST,KST,LST =  6  1  1  1 NREC =         1 INTLOC = 2074
 II,JST,KST,LST =  7  1  1  1 NREC =         1 INTLOC = 5929
 II,JST,KST,LST =  8  1  1  1 NREC =         1 INTLOC = 9865
 II,JST,KST,LST =  9  1  1  1 NREC =         2 INTLOC =14955
 II,JST,KST,LST = 10  1  1  1 NREC =         5 INTLOC =  206
 II,JST,KST,LST = 11  1  1  1 NREC =         7 INTLOC =13191
 II,JST,KST,LST = 12  1  1  1 NREC =        11 INTLOC =11604
 II,JST,KST,LST = 13  1  1  1 NREC =        19 INTLOC =11137
 II,JST,KST,LST = 14  1  1  1 NREC =        21 INTLOC = 9891
 II,JST,KST,LST = 15  1  1  1 NREC =        23 INTLOC =11128
 II,JST,KST,LST = 16  1  1  1 NREC =        25 INTLOC =14587
 II,JST,KST,LST = 17  1  1  1 NREC =        28 INTLOC = 5384
 II,JST,KST,LST = 18  1  1  1 NREC =        35 INTLOC =10924
 II,JST,KST,LST = 19  1  1  1 NREC =        38 INTLOC = 5413
 II,JST,KST,LST = 20  1  1  1 NREC =        41 INTLOC = 7907
 II,JST,KST,LST = 21  1  1  1 NREC =        44 INTLOC =13460
 II,JST,KST,LST = 22  1  1  1 NREC =        48 INTLOC = 7109
 II,JST,KST,LST = 23  1  1  1 NREC =        58 INTLOC =12621
 II,JST,KST,LST = 24  1  1  1 NREC =        66 INTLOC = 1125
 II,JST,KST,LST = 25  1  1  1 NREC =        73 INTLOC =10752
 II,JST,KST,LST = 26  1  1  1 NREC =        81 INTLOC =10872
 II,JST,KST,LST = 27  1  1  1 NREC =        90 INTLOC = 1488
 II,JST,KST,LST = 28  1  1  1 NREC =       117 INTLOC = 4445
 II,JST,KST,LST = 29  1  1  1 NREC =       126 INTLOC =13906
 II,JST,KST,LST = 30  1  1  1 NREC =       137 INTLOC = 4280
 II,JST,KST,LST = 31  1  1  1 NREC =       148 INTLOC = 1522
 II,JST,KST,LST = 32  1  1  1 NREC =       159 INTLOC = 5474
 SCHWARZ INEQUALITY TEST SKIPPED        2239 INTEGRAL BLOCKS.
 TOTAL NUMBER OF NONZERO TWO-ELECTRON INTEGRALS =             2913802
        195 INTEGRAL RECORDS WERE STORED ON DISK FILE  8.
  ...... END OF TWO-ELECTRON INTEGRALS .....
 STEP CPU TIME =     0.22 TOTAL CPU TIME =        0.2 (    0.0 MIN)
 TOTAL WALL CLOCK TIME=        0.3 SECONDS, CPU UTILIZATION IS  82.14%

          ---------------------------
                  UHF SCF CALCULATION
          ---------------------------

     NUCLEAR ENERGY =        44.4084353222
     MAXIT =200     NPUNCH=  2     MULT=  1
     EXTRAP=T  DAMP=F  SHIFT=F  RSTRCT=F  DIIS=F  SOSCF=T
     DENSITY MATRIX CONV=  1.00E-05
     SOSCF WILL OPTIMIZE     585 ALPHA AND     585 BETA ROTATION ANGLES.
     SOGTOL= 2.500E-01
     MEMORY REQUIRED FOR UHF/ROHF ITERS=     94134 WORDS.

 ITER EX      TOTAL ENERGY        E CHANGE  DENSITY CHANGE    ORB. GRAD 
   1  0     -113.6548907438  -113.6548907438   0.332094508   0.000000000
          ---------------START SECOND ORDER SCF---------------
   2  1     -114.3122069756    -0.6573162318   0.240688515   0.080747318
   3  2     -114.3846147587    -0.0724077831   0.100113147   0.075066718
   4  3     -114.4568206920    -0.0722059333   0.029579346   0.009857986
   5  4     -114.4605787258    -0.0037580338   0.033496913   0.004871319
   6  5     -114.4623409208    -0.0017621950   0.041475808   0.004139478
   7  6     -114.4634342394    -0.0010933186   0.077526547   0.003408480
   8  7     -114.4646624498    -0.0012282104   0.033250422   0.003058332
   9  8     -114.4653002243    -0.0006377744   0.017491443   0.002147728
  10  9     -114.4656287694    -0.0003285451   0.009003310   0.001839955
  11 10     -114.4657401663    -0.0001113969   0.006433013   0.001338299
  12 11     -114.4658071915    -0.0000670252   0.002564042   0.000515447
  13 12     -114.4658215359    -0.0000143445   0.001228068   0.000192208
  14 13     -114.4658248698    -0.0000033339   0.000931581   0.000116761
  15 14     -114.4658256179    -0.0000007481   0.000624802   0.000058026
  16 15     -114.4658258855    -0.0000002676   0.000239904   0.000041796
  17 16     -114.4658259618    -0.0000000763   0.000088752   0.000015331
  18 17     -114.4658259784    -0.0000000166   0.000042297   0.000006619
  19 18     -114.4658259814    -0.0000000030   0.000030170   0.000003502
  20 19     -114.4658259821    -0.0000000007   0.000008013   0.000001233
  21 20     -114.4658259822    -0.0000000001   0.000003404   0.000000480

          -----------------
          DENSITY CONVERGED
          -----------------
     TIME TO FORM FOCK OPERATORS=       1.2 SECONDS (       0.1 SEC/ITER)
     TIME TO SOLVE SCF EQUATIONS=       0.0 SECONDS (       0.0 SEC/ITER)

 FINAL UHF ENERGY IS     -114.4658259822 AFTER  21 ITERATIONS

          --------------------
          SPIN SZ   =    0.000
          S-SQUARED =   -0.000
          --------------------

  ----- ALPHA SET ----- 

          ------------
          EIGENVECTORS
          ------------

                      1          2          3          4          5
                  -20.6709   -11.4111    -1.6477    -0.9423    -0.8148
                     A          A          A          A          A   
    1  C  1  S    0.000028   0.563348  -0.069577   0.060890   0.000411
    2  C  1  S   -0.000087   0.466120  -0.110522   0.101887   0.000273
    3  C  1  X    0.000177   0.002377   0.118544  -0.071288   0.005003
    4  C  1  Y   -0.000016  -0.000645  -0.000005   0.001196   0.090580
    5  C  1  Z    0.000034   0.000320   0.024771   0.001078   0.108007
    6  C  1  S    0.000093   0.003619   0.245155  -0.263117  -0.009472
    7  C  1  X   -0.000142  -0.002130   0.097754  -0.056278  -0.009869
    8  C  1  Y    0.000013   0.000371   0.000251   0.003499   0.141748
    9  C  1  Z   -0.000004  -0.000312   0.020600   0.009716   0.162034
   10  C  1  S   -0.000096   0.002697   0.039426  -0.148036  -0.077256
   11  C  1  X   -0.000038   0.000928  -0.009253  -0.020827  -0.024626
   12  C  1  Y   -0.000037  -0.000118   0.000303  -0.002134   0.043124
   13  C  1  Z   -0.000043   0.000198  -0.004025  -0.004806   0.049288
   14  C  1  S   -0.000147   0.001617   0.039113  -0.000069  -0.071266
   15  C  1  X   -0.000049   0.000243   0.025723   0.013599   0.004942
   16  C  1  Y    0.000051   0.000028  -0.003090   0.000514   0.011040
   17  C  1  Z    0.000030   0.000040   0.009965   0.011884   0.025908
   18  C  1 XX   -0.000110  -0.001415   0.007582   0.002972  -0.012635
   19  C  1 YY   -0.000096  -0.001459  -0.026083   0.013176  -0.006315
   20  C  1 ZZ   -0.000097  -0.001423  -0.024004   0.012816   0.007524
   21  C  1 XY    0.000028  -0.000089   0.001054  -0.001351   0.028033
   22  C  1 XZ    0.000028   0.000058   0.009206  -0.000779   0.030096
   23  C  1 YZ   -0.000034  -0.000073  -0.000737  -0.003976   0.004846
   24  O  2  S    0.551240  -0.000650  -0.108830  -0.044489   0.011014
   25  O  2  S    0.471184  -0.000750  -0.180386  -0.075494   0.018801
   26  O  2  X   -0.000972  -0.000592  -0.084703   0.202265  -0.077057
   27  O  2  Y    0.000620   0.000044   0.002462  -0.008334   0.143223
   28  O  2  Z    0.000244  -0.000077  -0.010684   0.070313   0.157138
   29  O  2  S    0.007558   0.001831   0.501988   0.218430  -0.061177
   30  O  2  X   -0.000147  -0.002221  -0.135365   0.318653  -0.117949
   31  O  2  Y   -0.000316   0.000093   0.006097  -0.012189   0.221828
   32  O  2  Z   -0.000208  -0.000437  -0.015082   0.115975   0.243753
   33  O  2  S    0.000262   0.000966   0.336032   0.324025  -0.038214
   34  O  2  X   -0.000226  -0.000719  -0.030613   0.176184  -0.100212
   35  O  2  Y    0.000172  -0.000040   0.002780  -0.004090   0.161826
   36  O  2  Z    0.000055  -0.000267   0.002813   0.076903   0.176963
   37  O  2  S    0.000244  -0.002801  -0.080859   0.031001   0.051524
   38  O  2  X    0.000055   0.001189   0.006898  -0.015007  -0.026292
   39  O  2  Y   -0.000077   0.000034   0.000139   0.003580   0.000555
   40  O  2  Z   -0.000034   0.000380  -0.003643  -0.007392  -0.016156
   41  O  2 XX   -0.000394   0.001171   0.033722  -0.018436   0.007821
   42  O  2 YY   -0.000856  -0.000175  -0.012229   0.005508  -0.001812
   43  O  2 ZZ   -0.000841  -0.000151  -0.009305   0.010668  -0.006067
   44  O  2 XY   -0.000092  -0.000021  -0.001530   0.002549  -0.015603
   45  O  2 XZ    0.000018   0.000319   0.011010  -0.000477  -0.014788
   46  O  2 YZ    0.000088  -0.000061  -0.000885   0.001753   0.002207
   47  H  3  S    0.000057  -0.000019   0.018394   0.101215   0.014483
   48  H  3  S    0.000046   0.000213   0.019768   0.154291   0.027768
   49  H  3  S   -0.000042  -0.000291   0.006591   0.015209   0.019345
   50  H  3  S    0.000002  -0.000223  -0.008140   0.005309  -0.000373
   51  H  3  X   -0.000010  -0.000019  -0.007684  -0.028317  -0.007716
   52  H  3  Y    0.000004   0.000003   0.000222   0.000699   0.006560
   53  H  3  Z    0.000004  -0.000041  -0.004946  -0.024253   0.002981
   54  H  4  S    0.000002   0.000106   0.003542  -0.019317  -0.024498
   55  H  4  S   -0.000045  -0.000017  -0.000309  -0.034505  -0.048970
   56  H  4  S    0.000032   0.000215  -0.002043   0.000119   0.010542
   57  H  4  S   -0.000018  -0.000203   0.018281   0.016129   0.020042
   58  H  4  X   -0.000011  -0.000002   0.000986  -0.004902  -0.008609
   59  H  4  Y    0.000004   0.000033   0.000337   0.000506   0.004241
   60  H  4  Z   -0.000013  -0.000011  -0.000779  -0.003748  -0.005290
   61  H  5  S   -0.000004   0.000080   0.011891  -0.011989   0.057088
   62  H  5  S   -0.000053   0.000130   0.011808  -0.017767   0.082571
   63  H  5  S    0.000031   0.000097   0.003976  -0.000728   0.021959
   64  H  5  S   -0.000006  -0.000198  -0.006980  -0.011437   0.001192
   65  H  5  X   -0.000028  -0.000047   0.000195   0.000119   0.004368
   66  H  5  Y    0.000015  -0.000143  -0.003391   0.004325  -0.008466
   67  H  5  Z    0.000004  -0.000123  -0.003308   0.004127  -0.006460
   68  H  6  S   -0.000005   0.000070   0.007882  -0.023677  -0.052903
   69  H  6  S    0.000012   0.000345   0.009865  -0.038454  -0.080964
   70  H  6  S   -0.000026  -0.000045   0.001558  -0.007551  -0.013451
   71  H  6  S    0.000069  -0.000089  -0.013713  -0.006992   0.013241
   72  H  6  X    0.000005   0.000005  -0.000045   0.000921   0.001955
   73  H  6  Y    0.000023   0.000179   0.002838  -0.005019  -0.006518
   74  H  6  Z    0.000018   0.000202   0.002768  -0.004595  -0.005630

                      6          7          8          9         10
                   -0.7420    -0.7120    -0.3738    -0.2279    -0.0270
                     A          A          A          A          A   
    1  C  1  S   -0.005093  -0.054219  -0.011801   0.010291  -0.015225
    2  C  1  S   -0.008249  -0.090404  -0.019781   0.017456  -0.026088
    3  C  1  X   -0.032431  -0.161089  -0.072663   0.017488   0.046046
    4  C  1  Y    0.109768  -0.013354   0.052319  -0.065924   0.023406
    5  C  1  Z   -0.095638  -0.013135   0.070475   0.019518  -0.033669
    6  C  1  S    0.025540   0.261852   0.067207  -0.061904   0.089228
    7  C  1  X   -0.029488  -0.206986  -0.077135   0.041868   0.050944
    8  C  1  Y    0.164937  -0.023448   0.102309  -0.117359   0.042820
    9  C  1  Z   -0.139253  -0.019737   0.145190   0.039547  -0.060154
   10  C  1  S    0.071944   0.367803   0.210596  -0.046203  -0.122935
   11  C  1  X   -0.007181  -0.072661  -0.027843   0.093408   0.010011
   12  C  1  Y    0.052854  -0.002884   0.148831  -0.193815   0.075510
   13  C  1  Z   -0.050639  -0.023437   0.218375   0.083826  -0.036310
   14  C  1  S    0.025961   0.010873   0.063609  -0.067433  -0.497680
   15  C  1  X   -0.008843   0.011450   0.016345   0.034490  -0.211631
   16  C  1  Y   -0.001877  -0.000332   0.028697  -0.093392   0.004282
   17  C  1  Z   -0.022699   0.005139   0.055606   0.009002  -0.164090
   18  C  1 XX    0.014761  -0.009640   0.009101  -0.031279   0.008794
   19  C  1 YY    0.004597   0.017691   0.011090   0.028904  -0.007685
   20  C  1 ZZ   -0.004773   0.034771   0.003548   0.005891  -0.006044
   21  C  1 XY    0.043195  -0.007075  -0.022505   0.004789  -0.009662
   22  C  1 XZ   -0.030553   0.021737  -0.027095  -0.032863  -0.008576
   23  C  1 YZ    0.011091   0.012444  -0.000997   0.037418  -0.011941
   24  O  2  S   -0.004225   0.017691  -0.000951   0.021256   0.023889
   25  O  2  S   -0.007234   0.030299  -0.001964   0.036745   0.041817
   26  O  2  X    0.075016   0.057848   0.073228   0.010868  -0.076214
   27  O  2  Y    0.186964  -0.023984  -0.120236   0.053266  -0.041633
   28  O  2  Z   -0.132470   0.089005  -0.119621  -0.037383  -0.050852
   29  O  2  S    0.019415  -0.093174   0.004150  -0.114436  -0.123775
   30  O  2  X    0.118358   0.094653   0.118767   0.019907  -0.114061
   31  O  2  Y    0.294644  -0.038971  -0.191175   0.085057  -0.066658
   32  O  2  Z   -0.208496   0.137905  -0.189870  -0.056079  -0.076898
   33  O  2  S    0.035469  -0.096446  -0.034196  -0.227487  -0.263536
   34  O  2  X    0.080960   0.053799   0.136396  -0.003000  -0.137920
   35  O  2  Y    0.231632  -0.029463  -0.221331   0.127083  -0.083577
   36  O  2  Z   -0.166299   0.113752  -0.225481  -0.088040  -0.102128
   37  O  2  S   -0.004404  -0.039032  -0.050130  -0.160290  -0.203498
   38  O  2  X    0.025533   0.031414   0.043242   0.002889  -0.377057
   39  O  2  Y    0.009202  -0.004905  -0.067528   0.102600  -0.071609
   40  O  2  Z    0.011151   0.026393  -0.081648  -0.040202  -0.200429
   41  O  2 XX   -0.012836  -0.011611  -0.009655  -0.005106   0.012914
   42  O  2 YY    0.007162   0.004151   0.005225   0.002756  -0.006572
   43  O  2 ZZ    0.004208   0.005926  -0.001320   0.000697   0.001018
   44  O  2 XY   -0.021092   0.004418   0.000348   0.003530  -0.000700
   45  O  2 XZ    0.015036  -0.006560  -0.008545  -0.000429   0.015168
   46  O  2 YZ   -0.001940   0.002033  -0.002300   0.007678  -0.002376
   47  H  3  S   -0.003197   0.039603  -0.051811   0.027631   0.117881
   48  H  3  S    0.001671   0.066699  -0.116278   0.071651   0.281317
   49  H  3  S   -0.014004  -0.001045  -0.077773   0.140685   0.755805
   50  H  3  S    0.005012  -0.005250  -0.023197   0.061732   0.966602
   51  H  3  X    0.004591  -0.010008   0.011115   0.004231   0.017919
   52  H  3  Y    0.007686  -0.000191  -0.008770   0.008603  -0.003410
   53  H  3  Z   -0.004010  -0.004821  -0.002593   0.002953   0.015127
   54  H  4  S    0.033433   0.099563  -0.044918  -0.109934   0.012783
   55  H  4  S    0.069102   0.165160  -0.069796  -0.237546   0.046829
   56  H  4  S   -0.000542   0.033430  -0.032902  -0.318519   0.031771
   57  H  4  S   -0.010205   0.019181   0.009951  -0.110382   0.004948
   58  H  4  X    0.010081   0.014545  -0.004872  -0.002422   0.002934
   59  H  4  Y    0.003068  -0.002652   0.007903  -0.012565   0.007128
   60  H  4  Z    0.007769   0.014051   0.006067  -0.009605   0.003329
   61  H  5  S    0.016182   0.049936   0.122201   0.085368  -0.004224
   62  H  5  S    0.026377   0.080498   0.239179   0.195837  -0.012702
   63  H  5  S    0.014321   0.030974   0.180392   0.300010  -0.005646
   64  H  5  S    0.005685   0.001189   0.012112   0.149306   0.073129
   65  H  5  X    0.002417  -0.003003  -0.004444   0.004451  -0.000516
   66  H  5  Y    0.001199  -0.007552  -0.013563  -0.003598   0.001274
   67  H  5  Z   -0.004753  -0.004220  -0.011933  -0.000020   0.000098
   68  H  6  S    0.005729   0.064563  -0.087837   0.124250  -0.048793
   69  H  6  S    0.006083   0.099829  -0.170544   0.281058  -0.107348
   70  H  6  S    0.004007   0.032981  -0.121089   0.410418  -0.219033
   71  H  6  S   -0.012067  -0.003426  -0.018183   0.129252  -0.187271
   72  H  6  X    0.000033  -0.006160   0.004912   0.004298   0.002775
   73  H  6  Y    0.002950   0.009476  -0.013164   0.004152   0.000699
   74  H  6  Z   -0.001769   0.007150  -0.007879   0.011271  -0.001846

                     11         12         13         14         15
                    0.0477     0.0658     0.0831     0.0901     0.1177
                     A          A          A          A          A   
    1  C  1  S   -0.034913   0.000488   0.000415  -0.010032   0.002279
    2  C  1  S   -0.060479   0.000651  -0.001261  -0.017286   0.006117
    3  C  1  X   -0.060500   0.019377   0.038399   0.011038   0.024976
    4  C  1  Y   -0.015505  -0.030488   0.043985  -0.014908   0.060034
    5  C  1  Z    0.005616  -0.051321  -0.032777   0.001023  -0.052545
    6  C  1  S    0.171567  -0.008127  -0.042446   0.049752   0.034707
    7  C  1  X   -0.088156   0.017479   0.047008   0.007844   0.022795
    8  C  1  Y   -0.029951  -0.063422   0.091492  -0.043000   0.091294
    9  C  1  Z    0.017810  -0.098759  -0.056152   0.009083  -0.081662
   10  C  1  S    0.701712  -0.127473   0.553762   0.033820  -0.680312
   11  C  1  X    0.072012  -0.032844   0.257053  -0.007314   0.005710
   12  C  1  Y   -0.069095   0.001940   0.083938   0.003607   0.220671
   13  C  1  Z    0.054857  -0.098463  -0.084801   0.054695  -0.170839
   14  C  1  S    2.797138   0.426352   2.234742  -0.357550  -2.626930
   15  C  1  X   -0.512679   0.197945   1.399567   1.339241  -0.760631
   16  C  1  Y    0.115294  -1.555077   1.338665  -0.138272   0.347344
   17  C  1  Z   -0.140554  -1.685337   1.121564   2.306664   0.425662
   18  C  1 XX    0.002337  -0.009142  -0.023474   0.005249   0.024857
   19  C  1 YY    0.005592   0.000709  -0.007901  -0.001307  -0.000224
   20  C  1 ZZ   -0.003409   0.002378  -0.003942  -0.008146   0.008285
   21  C  1 XY    0.009201  -0.002732  -0.015478   0.007495  -0.000697
   22  C  1 XZ   -0.008335  -0.002029  -0.004887  -0.020966   0.004340
   23  C  1 YZ   -0.000388   0.005088   0.010135  -0.003570  -0.007815
   24  O  2  S    0.006339   0.002917   0.017162   0.009480  -0.001324
   25  O  2  S    0.011329   0.005299   0.029702   0.016478  -0.001494
   26  O  2  X    0.010742  -0.008490  -0.035233  -0.019415  -0.016301
   27  O  2  Y    0.036242  -0.010120  -0.054934   0.026033  -0.027894
   28  O  2  Z   -0.016948   0.005652   0.001331  -0.057160   0.005688
   29  O  2  S   -0.030474  -0.013416  -0.093145  -0.052553   0.015604
   30  O  2  X    0.019504  -0.012980  -0.056274  -0.026198  -0.018203
   31  O  2  Y    0.056696  -0.010301  -0.094785   0.046496  -0.044778
   32  O  2  Z   -0.024198   0.018401   0.006536  -0.099093   0.009321
   33  O  2  S   -0.160156  -0.004496  -0.198844  -0.082630  -0.054177
   34  O  2  X    0.049849  -0.068207  -0.058506  -0.046328  -0.063462
   35  O  2  Y    0.078379  -0.040735  -0.085975   0.037424  -0.081012
   36  O  2  Z   -0.042312  -0.027385   0.001052  -0.065520   0.033680
   37  O  2  S   -0.680472   0.064047  -2.010300  -0.979669   1.190353
   38  O  2  X    0.354354  -0.013624   0.404924  -0.307462  -0.677168
   39  O  2  Y    0.038935   0.195139  -0.316524   0.122466  -0.191404
   40  O  2  Z    0.070989   0.299409   0.079559  -0.725892  -0.267618
   41  O  2 XX    0.002550   0.001341   0.004597   0.006463   0.002399
   42  O  2 YY    0.000877  -0.001085  -0.005820  -0.005246   0.001053
   43  O  2 ZZ    0.000445   0.003168   0.001101  -0.000589   0.006745
   44  O  2 XY    0.001273   0.005129  -0.004709   0.001124  -0.007388
   45  O  2 XZ    0.001393   0.009380   0.009554   0.009508   0.008862
   46  O  2 YZ   -0.001172   0.002413   0.000326  -0.001138  -0.001752
   47  H  3  S    0.028828   0.034515   0.081830   0.080410   0.030797
   48  H  3  S    0.064006   0.034660   0.118307   0.083303   0.014034
   49  H  3  S    0.089520   0.329207   0.783904   1.366587   0.707231
   50  H  3  S    0.243869  -1.093554  -1.753563  -1.769840  -0.772346
   51  H  3  X    0.004025  -0.011075  -0.000125   0.006377  -0.008511
   52  H  3  Y    0.000973   0.007434  -0.007834   0.000961  -0.008545
   53  H  3  Z   -0.002374   0.000784   0.005390   0.007705   0.003125
   54  H  4  S   -0.042242   0.004407  -0.006239  -0.017525   0.042481
   55  H  4  S   -0.107110   0.010790  -0.050360  -0.051494  -0.037009
   56  H  4  S   -0.182060  -0.112130   0.154562   0.131751   0.904078
   57  H  4  S   -1.850906  -0.148856   0.568964   3.323687  -3.248231
   58  H  4  X    0.005209   0.007112   0.003938  -0.005905   0.009303
   59  H  4  Y   -0.001130  -0.001794   0.006190  -0.001554   0.000575
   60  H  4  Z    0.014909   0.000390  -0.005918   0.004027   0.004688
   61  H  5  S   -0.030896   0.012520   0.048273  -0.014023  -0.005385
   62  H  5  S   -0.112604   0.019402   0.093159  -0.008512   0.049530
   63  H  5  S    0.014364   0.106670   0.319987  -0.174768  -0.312303
   64  H  5  S   -1.428912   3.230983  -2.170253  -1.003077   1.615751
   65  H  5  X   -0.004423   0.001192   0.003358  -0.003158  -0.002742
   66  H  5  Y   -0.005370   0.007507   0.002091  -0.003590   0.001345
   67  H  5  Z   -0.003768   0.006270  -0.005905   0.005153   0.000026
   68  H  6  S   -0.005870   0.015948   0.017852  -0.016046  -0.027744
   69  H  6  S   -0.043315   0.018166  -0.013595  -0.071895   0.034771
   70  H  6  S    0.048307   0.097061   0.308530   0.117820  -0.639984
   71  H  6  S   -0.259608  -3.105520   0.942925  -0.447366   4.051955
   72  H  6  X   -0.000256   0.000706   0.006168  -0.001393  -0.000889
   73  H  6  Y    0.000690   0.011490   0.000665  -0.003252  -0.002271
   74  H  6  Z    0.008075   0.007210  -0.008502   0.006294  -0.003522

                     16         17         18         19         20
                    0.1365     0.1547     0.1783     0.1974     0.2150
                     A          A          A          A          A   
    1  C  1  S   -0.018845   0.035676   0.017343   0.016269   0.000202
    2  C  1  S   -0.038079   0.062614   0.027945   0.028303  -0.002920
    3  C  1  X   -0.033654   0.062585   0.057904   0.037423  -0.003622
    4  C  1  Y   -0.024298   0.048860   0.012304  -0.131378  -0.024899
    5  C  1  Z    0.029726  -0.032942   0.051900   0.008067   0.092105
    6  C  1  S    0.010336  -0.207652  -0.147411  -0.104168  -0.049355
    7  C  1  X   -0.046413   0.047519   0.059235   0.019903   0.006560
    8  C  1  Y   -0.041557   0.051770   0.031065  -0.147306  -0.019678
    9  C  1  Z    0.044039  -0.032860   0.089512   0.005724   0.131885
   10  C  1  S    1.695803   0.467691   1.121271   0.209879   0.421096
   11  C  1  X    0.221271   0.810143   0.594526   0.361857  -0.113856
   12  C  1  Y   -0.077450   0.288686   0.001899  -0.769523  -0.201097
   13  C  1  Z    0.160243  -0.114772   0.199878   0.080580   0.487133
   14  C  1  S    4.698479   6.285724   4.731715   1.385382  -2.069827
   15  C  1  X    1.430844   1.637327  -3.071160   0.128303   1.478303
   16  C  1  Y   -0.370052  -1.030862  -0.883976   2.696442  -3.580932
   17  C  1  Z   -0.363380   0.374447  -3.174909   2.917707  -2.299560
   18  C  1 XX   -0.018713   0.000289   0.004887   0.010307  -0.008714
   19  C  1 YY   -0.028634  -0.008625  -0.022037  -0.018267  -0.029562
   20  C  1 ZZ   -0.034265   0.002045  -0.033613  -0.007991  -0.011068
   21  C  1 XY    0.006293   0.003638  -0.003034  -0.011591   0.008240
   22  C  1 XZ    0.002112   0.007873   0.001772   0.009061   0.021278
   23  C  1 YZ   -0.028245   0.004539   0.008987  -0.002924   0.005003
   24  O  2  S    0.008174  -0.002606   0.002475  -0.004485   0.002723
   25  O  2  S    0.013620  -0.005685   0.006554  -0.007209   0.004786
   26  O  2  X   -0.014178  -0.001966  -0.038946  -0.011433  -0.017241
   27  O  2  Y    0.030903  -0.017436  -0.005898  -0.000025   0.004036
   28  O  2  Z    0.000320   0.018923  -0.015178  -0.030723  -0.055499
   29  O  2  S   -0.050846   0.004361   0.015240   0.031336  -0.017496
   30  O  2  X   -0.030757  -0.024090  -0.044201  -0.023185  -0.016841
   31  O  2  Y    0.050055  -0.024852  -0.012016   0.014389   0.015748
   32  O  2  Z    0.001549   0.021803  -0.020509  -0.050582  -0.084733
   33  O  2  S   -0.136105   0.003331  -0.480248  -0.075879  -0.051522
   34  O  2  X    0.061212   0.124466  -0.054436   0.013866  -0.055259
   35  O  2  Y    0.069853  -0.080734  -0.011975   0.009788  -0.050521
   36  O  2  Z   -0.015503   0.097223  -0.052280  -0.055785  -0.225044
   37  O  2  S   -2.759689  -3.354368  -1.094890  -0.854747  -0.655894
   38  O  2  X    0.995710   0.900261   1.896020   0.760308   0.510707
   39  O  2  Y    0.154869  -0.068069  -0.060149   0.799652   0.562039
   40  O  2  Z    0.448579   0.484348   0.563286   0.173276  -0.149285
   41  O  2 XX    0.001264  -0.010478   0.021776   0.005458   0.009197
   42  O  2 YY   -0.002621  -0.001549   0.004813   0.002329  -0.002548
   43  O  2 ZZ   -0.005137  -0.001486   0.002519   0.000174  -0.006527
   44  O  2 XY    0.004415  -0.007276  -0.002046   0.020362   0.004379
   45  O  2 XZ   -0.003550  -0.000858  -0.001608  -0.000002  -0.006971
   46  O  2 YZ   -0.005909  -0.001700   0.001132   0.004157   0.003493
   47  H  3  S    0.010030  -0.049370   0.045567  -0.013749   0.011795
   48  H  3  S    0.029916  -0.079981   0.063468  -0.032630  -0.040495
   49  H  3  S   -0.285421  -0.828604  -0.084462  -0.537904   0.495501
   50  H  3  S   -1.763707  -0.423621   0.487434  -0.110394  -1.228368
   51  H  3  X    0.005527  -0.002700   0.009553   0.003817   0.013671
   52  H  3  Y    0.002340  -0.012221  -0.001707   0.026132   0.007526
   53  H  3  Z    0.002008   0.013810  -0.010015   0.004221  -0.007230
   54  H  4  S   -0.026394   0.056022   0.001388   0.070032   0.066270
   55  H  4  S   -0.014872   0.108645   0.175485   0.059189   0.027398
   56  H  4  S   -0.313664   0.635848  -0.797053   1.230767   1.269263
   57  H  4  S   -0.600601   0.747984  -4.364830  -1.233938   1.075971
   58  H  4  X   -0.004317  -0.000302  -0.013990  -0.005749  -0.005231
   59  H  4  Y    0.004895  -0.000517  -0.000856  -0.002157  -0.007769
   60  H  4  Z    0.004121  -0.002619  -0.001427   0.002386  -0.005416
   61  H  5  S   -0.088332   0.040830   0.015089   0.010836   0.034825
   62  H  5  S   -0.074656   0.037922  -0.033152   0.109472  -0.106531
   63  H  5  S   -1.153629   0.415488   0.700829  -0.348459   1.413436
   64  H  5  S    1.137439  -1.459482   0.949119  -3.736070   4.057404
   65  H  5  X   -0.004529   0.007404  -0.006046   0.001689   0.008161
   66  H  5  Y    0.006893   0.001670   0.004934   0.004347  -0.008030
   67  H  5  Z    0.006037   0.007184   0.000438   0.008414   0.001136
   68  H  6  S   -0.054316   0.012603   0.007393  -0.023619  -0.040241
   69  H  6  S   -0.006192   0.025968   0.063203  -0.204600   0.003162
   70  H  6  S   -0.796918   0.022231  -0.153947   0.449472  -0.874477
   71  H  6  S   -0.493219  -3.168124  -1.004379   3.759738  -3.086891
   72  H  6  X    0.004165  -0.001551  -0.003986  -0.004828  -0.000288
   73  H  6  Y   -0.008232  -0.001982  -0.010770  -0.000003  -0.005936
   74  H  6  Z   -0.000685  -0.004309  -0.009336  -0.002291  -0.006425

                     21         22         23         24         25
                    0.2632     0.2777     0.3146     0.3716     0.3978
                     A          A          A          A          A   
    1  C  1  S   -0.004785   0.012883   0.007649   0.010425   0.016111
    2  C  1  S   -0.015681   0.025986   0.016758   0.025125   0.038891
    3  C  1  X    0.002526   0.002614  -0.013833   0.001627   0.012732
    4  C  1  Y    0.011933  -0.037753   0.114703  -0.071085  -0.028202
    5  C  1  Z    0.004628   0.095977   0.126232   0.027782   0.025448
    6  C  1  S   -0.110422  -0.020394   0.037056   0.106912   0.086681
    7  C  1  X    0.021569  -0.016553  -0.001391   0.024109   0.010185
    8  C  1  Y   -0.017352  -0.114888   0.183716  -0.102409  -0.071795
    9  C  1  Z   -0.045859   0.161753   0.146491  -0.025355   0.021947
   10  C  1  S    2.265464  -0.915815  -0.774289  -1.265258  -5.364294
   11  C  1  X    0.340488  -0.011011   0.113946   0.659360  -1.146735
   12  C  1  Y    0.220675   0.003576   0.814867  -0.494247  -0.038422
   13  C  1  Z    0.318294   0.567739   1.222564   0.735941  -0.030835
   14  C  1  S   -1.098504  -0.338032  -1.136864  -1.052580  -8.278634
   15  C  1  X    1.436600   0.303932   1.415874   1.941673  -2.369796
   16  C  1  Y    2.608458   2.439195   1.752438  -0.623425   0.667461
   17  C  1  Z    4.433673   0.987376   3.615849   1.747556   0.087463
   18  C  1 XX   -0.028030   0.022666   0.023531   0.042827   0.036484
   19  C  1 YY   -0.051002   0.009054   0.012794   0.026307   0.070628
   20  C  1 ZZ   -0.038274   0.013135   0.023455   0.047937   0.074753
   21  C  1 XY   -0.003957   0.002315   0.002522  -0.005901  -0.003362
   22  C  1 XZ    0.014948   0.003505   0.008266  -0.007911  -0.010520
   23  C  1 YZ    0.020879  -0.003986  -0.003451  -0.001166  -0.027838
   24  O  2  S    0.000948  -0.008245  -0.003831  -0.011235   0.028100
   25  O  2  S    0.002554  -0.015135  -0.007024  -0.022131   0.053312
   26  O  2  X   -0.028953   0.018119   0.008796   0.024148  -0.033282
   27  O  2  Y    0.027284   0.100176  -0.067917   0.024409   0.018429
   28  O  2  Z    0.052894  -0.083738  -0.014050   0.054518   0.011609
   29  O  2  S    0.007517   0.037048   0.019854   0.036657  -0.133502
   30  O  2  X   -0.029091   0.015395   0.012422   0.013542   0.015692
   31  O  2  Y    0.020169   0.112164  -0.073370   0.029306   0.021375
   32  O  2  Z    0.045913  -0.104953  -0.017134   0.049951   0.005833
   33  O  2  S   -0.263548   0.213251  -0.003429   0.309607  -0.614749
   34  O  2  X   -0.060505   0.104130   0.130131   0.388689  -0.668414
   35  O  2  Y    0.169913   0.502546  -0.395101   0.141775   0.103895
   36  O  2  Z    0.316983  -0.392015  -0.085489   0.418811   0.005014
   37  O  2  S   -2.107867  -0.285199  -0.857308  -4.579439  11.149196
   38  O  2  X    2.660739  -0.916748  -1.169400  -3.748321  -3.157342
   39  O  2  Y   -0.955765  -1.531588   0.795740  -0.238555  -0.245279
   40  O  2  Z   -0.872172   0.147626  -1.286960  -4.673946  -1.415669
   41  O  2 XX    0.014030  -0.001735   0.001146  -0.013208   0.000564
   42  O  2 YY    0.001011  -0.002186  -0.002013  -0.013590   0.023602
   43  O  2 ZZ   -0.002871  -0.005345  -0.003556  -0.004962   0.020596
   44  O  2 XY   -0.006364  -0.006184  -0.004990   0.006678   0.002003
   45  O  2 XZ   -0.008775  -0.002673  -0.015457  -0.009799  -0.014496
   46  O  2 YZ    0.002555  -0.001450  -0.005208   0.002668  -0.003343
   47  H  3  S   -0.024367  -0.002692  -0.008288  -0.003013  -0.001723
   48  H  3  S    0.016280  -0.099348  -0.179425  -0.321714   0.013985
   49  H  3  S   -1.220412   0.846074   1.561920   5.651204   0.242811
   50  H  3  S   -0.772804  -0.231324  -0.779794  -0.973648   1.144272
   51  H  3  X    0.008331   0.003989   0.011986   0.021113  -0.017900
   52  H  3  Y   -0.005780  -0.010264   0.001234   0.002926  -0.003760
   53  H  3  Z   -0.015735   0.007132   0.002971   0.012068  -0.007893
   54  H  4  S    0.024419   0.039938   0.009016   0.009028   0.018796
   55  H  4  S   -0.020453  -0.020054  -0.033493   0.110051  -0.094121
   56  H  4  S    1.149446   1.086737   1.048037   1.141131   0.851844
   57  H  4  S    2.242865  -1.040140   1.500229   1.765319  -1.160979
   58  H  4  X    0.000126  -0.009677   0.005858   0.021706   0.007073
   59  H  4  Y   -0.002429  -0.004419   0.003742  -0.000454   0.008318
   60  H  4  Z    0.002370   0.000606   0.000721   0.004857  -0.007385
   61  H  5  S   -0.017597  -0.024986  -0.047227   0.021074  -0.001978
   62  H  5  S   -0.034058  -0.016532   0.041172  -0.055716   0.045224
   63  H  5  S    0.083081  -0.605226  -2.562483   1.393404  -0.973579
   64  H  5  S   -2.707663  -1.058364  -1.451904  -0.039689   1.119037
   65  H  5  X   -0.000450  -0.003486  -0.004157   0.002885  -0.003310
   66  H  5  Y    0.013255  -0.004645  -0.006210  -0.004313  -0.006508
   67  H  5  Z    0.015108   0.006748  -0.004751   0.009777  -0.004765
   68  H  6  S    0.037104   0.012467   0.062810  -0.004590  -0.012599
   69  H  6  S   -0.014319  -0.032948  -0.047984   0.173357   0.082413
   70  H  6  S    1.438042   0.492563   2.580676  -1.914221  -1.146886
   71  H  6  S    1.993496   2.110435   1.191381   0.082907   2.778197
   72  H  6  X   -0.000086  -0.002451   0.001849  -0.005994   0.011686
   73  H  6  Y    0.003034  -0.000968   0.005789   0.018717   0.011299
   74  H  6  Z   -0.002749   0.005280  -0.003999  -0.003353   0.011035

                     26         27         28         29         30
                    0.4740     0.5170     0.5553     0.6428     0.7224
                     A          A          A          A          A   
    1  C  1  S    0.011612  -0.003776   0.033043   0.023127   0.005698
    2  C  1  S    0.019201  -0.012963   0.058995   0.038109   0.004737
    3  C  1  X   -0.046768  -0.013767   0.062539   0.035518   0.037847
    4  C  1  Y    0.001774  -0.020954  -0.003259   0.072591  -0.006279
    5  C  1  Z   -0.037085  -0.005767   0.028694  -0.005962  -0.227370
    6  C  1  S   -0.161088  -0.012202  -0.096288  -0.232495  -0.182100
    7  C  1  X   -0.152772   0.086941   0.036691  -0.133479   0.057629
    8  C  1  Y    0.017855  -0.071315   0.017998   0.217893   0.093565
    9  C  1  Z   -0.020726   0.036254   0.014477  -0.055849  -0.836135
   10  C  1  S   -0.829239   4.664237  -3.554408  -5.590492  -0.982721
   11  C  1  X   -0.763575   2.431359  -2.095209  -3.685189  -0.613399
   12  C  1  Y   -0.147170   0.083397  -0.072846  -0.214353  -0.291981
   13  C  1  Z   -0.733365   0.449367  -0.315951  -0.901348   1.462328
   14  C  1  S    0.346133   3.257156  -1.351354  -3.622086  -1.943525
   15  C  1  X   -0.742903  -0.346154  -0.517817   0.345539   1.081618
   16  C  1  Y   -0.484254   0.373349   0.279052  -1.102372   1.667725
   17  C  1  Z   -1.177944  -0.227360  -0.278000  -0.892022   2.436634
   18  C  1 XX   -0.025938  -0.001008  -0.020797  -0.085146  -0.056040
   19  C  1 YY   -0.008282  -0.024033  -0.004360   0.013644  -0.026921
   20  C  1 ZZ   -0.009794  -0.015827   0.015777  -0.036248  -0.025382
   21  C  1 XY    0.002605  -0.000505  -0.000495  -0.000685   0.009542
   22  C  1 XZ    0.026877   0.018322   0.000036  -0.028369  -0.044046
   23  C  1 YZ   -0.010380   0.034522   0.020022   0.028784   0.002741
   24  O  2  S   -0.017377   0.006556  -0.005219  -0.017542  -0.002174
   25  O  2  S   -0.030279   0.014298  -0.012213  -0.035466  -0.004283
   26  O  2  X    0.013518   0.059991  -0.032007  -0.020328   0.001745
   27  O  2  Y    0.002798  -0.003232  -0.006857  -0.024076   0.002733
   28  O  2  Z    0.043900   0.001418  -0.045928   0.020055   0.059225
   29  O  2  S    0.079406   0.011162  -0.028229   0.010578   0.000592
   30  O  2  X    0.030913   0.110745  -0.073159  -0.052510  -0.002759
   31  O  2  Y    0.000299  -0.004695  -0.010439  -0.023114  -0.016534
   32  O  2  Z    0.073398   0.010124  -0.086992   0.064465   0.119949
   33  O  2  S    0.627490  -1.665305   1.528916   2.909756   0.578341
   34  O  2  X   -0.358605   0.756610  -0.556950  -1.266443  -0.403697
   35  O  2  Y    0.045014   0.012553   0.027282  -0.177438   0.136676
   36  O  2  Z    0.073125   0.113647  -0.149366  -0.358888   0.051469
   37  O  2  S    0.359767  -4.301903   4.273365   6.015288  -0.031868
   38  O  2  X   -0.360255   1.720926  -1.847905  -2.008420  -0.704778
   39  O  2  Y   -0.027067   0.005327   0.075274   0.238458  -0.028362
   40  O  2  Z    0.043562   0.929992  -0.367055  -0.337318  -1.450340
   41  O  2 XX   -0.008398  -0.010278   0.004831   0.007392  -0.006172
   42  O  2 YY    0.010245   0.024680  -0.021649  -0.032322  -0.006644
   43  O  2 ZZ   -0.001233   0.017263  -0.021973  -0.030697   0.009093
   44  O  2 XY   -0.001432  -0.001387  -0.006466  -0.010888  -0.002172
   45  O  2 XZ   -0.012845  -0.013117   0.001148   0.013869   0.022777
   46  O  2 YZ   -0.000843   0.005619   0.010987   0.006558   0.003105
   47  H  3  S   -0.128690  -0.041505   0.031327  -0.031679  -0.017858
   48  H  3  S   -1.493149  -0.613697   0.317452  -0.083461   0.018286
   49  H  3  S    3.003852   0.588519  -0.006458   0.522999   1.007327
   50  H  3  S   -0.930764  -0.936841   0.438631  -0.415691  -0.508885
   51  H  3  X   -0.014216   0.017727   0.019155  -0.047103  -0.052708
   52  H  3  Y    0.001529  -0.009621  -0.007779  -0.012876  -0.003847
   53  H  3  Z    0.000583  -0.005157   0.005229  -0.015476  -0.014666
   54  H  4  S    0.017087  -0.021691   0.102849  -0.034202  -0.037183
   55  H  4  S    0.306549  -0.033740   1.137136  -0.978882  -0.529576
   56  H  4  S   -1.869672   1.182587  -2.744311   0.831866   1.671678
   57  H  4  S   -0.154634  -2.393045   0.733920   0.037516   0.774830
   58  H  4  X   -0.003864   0.020137  -0.007568  -0.037696   0.014658
   59  H  4  Y    0.003696  -0.017730  -0.029541  -0.020678   0.004184
   60  H  4  Z    0.008391  -0.016331  -0.011275   0.005225   0.026948
   61  H  5  S   -0.016312   0.051768   0.059415  -0.022943   0.062018
   62  H  5  S   -0.111065   0.820957   1.034180   0.235448   0.722571
   63  H  5  S    0.651971  -2.106295  -1.969006  -0.149948  -1.914136
   64  H  5  S    0.589691   0.717640   0.438186   1.847626  -0.669737
   65  H  5  X    0.016581   0.014618   0.021290  -0.008566   0.002433
   66  H  5  Y    0.005238  -0.004350  -0.021818  -0.014797   0.025938
   67  H  5  Z    0.004163   0.001218  -0.007906  -0.046688   0.032384
   68  H  6  S   -0.017079   0.029636  -0.003035   0.072427  -0.058414
   69  H  6  S   -0.318885   0.617441   0.319315   1.212235  -0.765199
   70  H  6  S    0.325770  -1.525206  -0.247864  -2.728740   1.763579
   71  H  6  S   -0.611356   1.499955   0.117885   0.509973   1.308594
   72  H  6  X   -0.006990  -0.018783  -0.012522   0.032683   0.019243
   73  H  6  Y   -0.008178   0.011186   0.021536  -0.004234   0.027940
   74  H  6  Z   -0.004468  -0.000050   0.006066   0.025683   0.023964

                     31         32         33         34         35
                    0.7281     0.8063     0.8969     1.0397     1.1689
                     A          A          A          A          A   
    1  C  1  S    0.009294   0.014193   0.050516  -0.057396  -0.004464
    2  C  1  S    0.011019   0.018541   0.059638  -0.063028  -0.005043
    3  C  1  X    0.018494   0.031927   0.130735   0.059797  -0.006126
    4  C  1  Y    0.218424  -0.065044  -0.033463   0.002422   0.061233
    5  C  1  Z   -0.007129  -0.072659   0.024429  -0.047898  -0.004253
    6  C  1  S   -0.132937  -0.173968  -0.923445   2.012807   0.117146
    7  C  1  X    0.229935   0.108377   1.126974   0.830540  -0.010855
    8  C  1  Y    0.871152  -0.426809  -0.124945   0.011546  -0.070844
    9  C  1  Z   -0.128989  -0.550137   0.310942   0.043266  -0.020965
   10  C  1  S    3.164750   1.153451   9.303121  -2.917051  -0.436119
   11  C  1  X    1.914612   0.954504   1.053096  -0.027811   0.020873
   12  C  1  Y   -1.725732   2.149249   0.071971   0.095194  -0.481656
   13  C  1  Z    0.923943   3.167406  -0.797383   0.601497  -0.016894
   14  C  1  S    0.838739   0.237840   0.732151  -1.723363  -0.423765
   15  C  1  X   -0.335355  -0.068553   0.807799  -0.541474  -0.088269
   16  C  1  Y   -0.105685  -2.152508  -0.129093  -0.098616   0.765171
   17  C  1  Z   -0.685602  -2.164925   0.049707  -0.600755   0.157763
   18  C  1 XX   -0.006463  -0.018309  -0.137627   0.403025   0.013013
   19  C  1 YY   -0.059764  -0.082069  -0.141056   0.225206   0.001335
   20  C  1 ZZ    0.003360   0.007028  -0.200896   0.338308   0.037814
   21  C  1 XY    0.035193  -0.026240  -0.006746   0.022998  -0.202612
   22  C  1 XZ    0.009978  -0.012288   0.074847   0.144254   0.019053
   23  C  1 YZ   -0.008192  -0.009862  -0.055922   0.020705  -0.046556
   24  O  2  S    0.007848  -0.000607   0.011284   0.010559   0.002878
   25  O  2  S    0.017192   0.000436   0.021511   0.019129   0.003991
   26  O  2  X    0.014876   0.002927   0.009191  -0.056172  -0.012135
   27  O  2  Y   -0.023652   0.006375   0.001348   0.008196  -0.214917
   28  O  2  Z   -0.003583  -0.014029   0.031395   0.071409   0.002612
   29  O  2  S    0.022004   0.044101   0.018780   0.002317  -0.039274
   30  O  2  X    0.038457   0.030742   0.054576  -0.113071  -0.046546
   31  O  2  Y   -0.049452   0.028965  -0.013261   0.037935  -0.759261
   32  O  2  Z    0.002060   0.000682   0.048575   0.247493   0.010270
   33  O  2  S   -1.778633  -0.955621  -2.705354  -1.778675   0.065583
   34  O  2  X    0.689499   0.066527   1.889564   2.460151   0.130268
   35  O  2  Y   -0.045795  -0.332307   0.118403  -0.145311   1.833025
   36  O  2  Z    0.071346  -0.438142   0.497237  -0.092297   0.015002
   37  O  2  S   -3.040245  -1.275604  -4.814841   2.946708   0.206949
   38  O  2  X    0.323118   0.060897   2.580518  -2.815413  -0.417789
   39  O  2  Y    0.311037   0.145894  -0.059991   0.106356  -1.291673
   40  O  2  Z   -0.610732  -0.395069   1.548342  -0.511790  -0.315416
   41  O  2 XX   -0.001943  -0.000851  -0.015715   0.011255  -0.002759
   42  O  2 YY    0.020085   0.005680   0.028705   0.003721  -0.008829
   43  O  2 ZZ    0.024954   0.018285   0.006442  -0.016463  -0.005658
   44  O  2 XY   -0.023630   0.022238   0.009149  -0.006628   0.028952
   45  O  2 XZ   -0.008762   0.006620  -0.003697  -0.018939  -0.004839
   46  O  2 YZ   -0.015511  -0.008894  -0.016011   0.004534   0.015385
   47  H  3  S   -0.003850  -0.026351   0.014801   0.009564   0.002302
   48  H  3  S   -0.069788   0.018759  -0.471728  -0.849098  -0.054649
   49  H  3  S    0.862569   0.701357  -0.933776   1.481355   0.323977
   50  H  3  S    0.159737  -0.102841  -0.454898   0.407013   0.075161
   51  H  3  X    0.008352  -0.048138   0.099763   0.152656   0.022215
   52  H  3  Y   -0.019812   0.017242   0.008719  -0.029552   0.282541
   53  H  3  Z   -0.001252  -0.006244  -0.073153  -0.172813   0.002765
   54  H  4  S    0.008871   0.001154   0.027969  -0.006460  -0.009841
   55  H  4  S    0.574070   1.053729  -0.420390   0.097152  -0.058704
   56  H  4  S    0.096917  -0.425060  -0.674915   0.119415   0.254031
   57  H  4  S   -0.711132   0.017242   0.909764  -0.533733  -0.241961
   58  H  4  X    0.026585   0.066299  -0.053039   0.091345   0.015156
   59  H  4  Y   -0.002421   0.000487   0.048832  -0.038816  -0.016179
   60  H  4  Z   -0.020282   0.019572  -0.112392  -0.001480   0.006129
   61  H  5  S   -0.037362  -0.001254   0.016329  -0.013143   0.008708
   62  H  5  S   -0.616456  -1.341808  -0.194559   0.214426  -0.084526
   63  H  5  S    1.691919   0.367572   0.132614  -0.538006   0.294293
   64  H  5  S   -0.241413   2.251977   0.209552   0.511353  -0.237633
   65  H  5  X   -0.005217  -0.041113  -0.008947  -0.000079   0.043867
   66  H  5  Y   -0.025232   0.037187   0.066101  -0.051996  -0.009885
   67  H  5  Z    0.003979   0.089175   0.009837  -0.015344  -0.007801
   68  H  6  S    0.045454   0.005902   0.012247   0.001333   0.006048
   69  H  6  S    0.210753   1.289224  -0.730931   0.267794   0.048322
   70  H  6  S   -1.427674  -0.283189   0.759456  -0.468881  -0.434162
   71  H  6  S    0.420171  -2.201861  -0.476245   0.359087   0.623192
   72  H  6  X   -0.029338   0.004686  -0.022986  -0.055167  -0.047361
   73  H  6  Y   -0.015809   0.084402  -0.091085   0.090368  -0.013484
   74  H  6  Z   -0.063637   0.018361  -0.040702   0.020168  -0.056371

                     36         37         38         39         40
                    1.2262     1.2596     1.2956     1.3314     1.4676
                     A          A          A          A          A   
    1  C  1  S    0.003010  -0.006386   0.061208  -0.004739  -0.013896
    2  C  1  S    0.004589  -0.017312   0.095953  -0.016034  -0.014304
    3  C  1  X    0.002583   0.064858  -0.193068   0.071583  -0.021953
    4  C  1  Y   -0.007718  -0.007978  -0.007764  -0.016445   0.000224
    5  C  1  Z    0.029295   0.042178  -0.041135   0.027260   0.008049
    6  C  1  S    0.111454  -0.248131  -1.128866  -0.327516   0.369816
    7  C  1  X    0.206594  -0.108500  -0.534439  -0.183904   0.127343
    8  C  1  Y   -0.013642   0.035131  -0.018783  -0.083564   0.027798
    9  C  1  Z    0.034958   0.191001   0.012164   0.042400   0.081278
   10  C  1  S    0.393814  -1.757090   4.588839  -2.011337  -0.832651
   11  C  1  X   -0.409466  -1.466594   1.684749  -0.996837   0.384837
   12  C  1  Y   -0.135814  -0.191473   0.137740   0.420880  -0.106368
   13  C  1  Z   -0.776174  -0.857410   0.443576   0.212729   0.247648
   14  C  1  S   -1.236441   0.405934   2.473838  -0.283296  -2.151105
   15  C  1  X   -0.089015  -0.576784   0.173499  -0.300090  -1.429625
   16  C  1  Y    0.267563  -0.187745  -0.007435  -0.112848   0.283875
   17  C  1  Z    0.624297  -1.088608  -0.457211  -0.645616  -0.554639
   18  C  1 XX    0.043926  -0.205582   0.102182  -0.309746   0.172352
   19  C  1 YY   -0.357710  -0.334026  -0.430363   0.077260   0.073748
   20  C  1 ZZ    0.308819   0.404335  -0.102251   0.066274  -0.034428
   21  C  1 XY    0.136141  -0.205082   0.070663   0.298032  -0.006241
   22  C  1 XZ   -0.147038  -0.175165   0.196392  -0.022950   0.063322
   23  C  1 YZ   -0.025621   0.043941  -0.030309   0.093360  -0.245195
   24  O  2  S   -0.011432   0.007043  -0.021480   0.010163  -0.074924
   25  O  2  S   -0.015907   0.012865  -0.040047   0.018794  -0.101043
   26  O  2  X    0.000312   0.064519  -0.187284   0.084626   0.048809
   27  O  2  Y   -0.008423   0.028677  -0.000456  -0.054367   0.009798
   28  O  2  Z   -0.122159   0.106531   0.069029   0.098841   0.043204
   29  O  2  S    0.171990  -0.064221   0.116031  -0.089934   1.159118
   30  O  2  X    0.009682   0.131074  -0.469142   0.162835   0.405408
   31  O  2  Y   -0.053529   0.113049  -0.022560  -0.240529  -0.018141
   32  O  2  Z   -0.443691   0.406125   0.290926   0.375103   0.169326
   33  O  2  S   -0.504081   1.313343  -0.552554   1.179322  -3.423624
   34  O  2  X    0.340064  -1.174190   0.499135  -1.339822  -0.672720
   35  O  2  Y    0.048329  -0.027506  -0.030175   0.176753   0.158078
   36  O  2  Z    1.257939  -1.172907  -0.935737  -1.297619  -0.509549
   37  O  2  S    0.981525   2.456203  -3.840188   2.044049   4.966491
   38  O  2  X   -0.047257   0.620103   1.784789   0.152218   0.070830
   39  O  2  Y   -0.092822   0.114438   0.041150  -0.145907  -0.063837
   40  O  2  Z   -0.593745   1.622876   1.500698   0.773686   0.521532
   41  O  2 XX    0.023437   0.034336  -0.067599   0.029683   0.172003
   42  O  2 YY   -0.012532  -0.060705   0.022048  -0.015736   0.166655
   43  O  2 ZZ    0.057662   0.030244   0.032838  -0.007132   0.160290
   44  O  2 XY   -0.007763   0.019305  -0.003715  -0.024426   0.030941
   45  O  2 XZ   -0.009926   0.008508  -0.048991   0.009780   0.022451
   46  O  2 YZ   -0.020363   0.034078  -0.018421  -0.031466  -0.060482
   47  H  3  S    0.009610  -0.019680  -0.006440  -0.024745  -0.053849
   48  H  3  S   -0.423281   0.537618   0.402401   0.687933   0.715287
   49  H  3  S    0.137347  -1.482480  -1.273352  -0.930797  -1.223036
   50  H  3  S    0.029486   0.217506  -0.029533   0.198237   0.488622
   51  H  3  X   -0.055690  -0.148394   0.217853  -0.100894  -0.043734
   52  H  3  Y   -0.105594   0.208480  -0.097855  -0.323003   0.020429
   53  H  3  Z    0.077421  -0.047429   0.043502   0.026951  -0.087470
   54  H  4  S   -0.031704   0.021935   0.009602   0.008430  -0.001237
   55  H  4  S   -0.561239  -0.019036  -0.242510   0.196898   0.176060
   56  H  4  S    0.165097  -0.830014   0.413125  -0.442418   0.151138
   57  H  4  S    0.273344  -0.547368  -0.686787  -0.127981  -1.111906
   58  H  4  X    0.242235   0.015207   0.087217   0.008846   0.093830
   59  H  4  Y   -0.143188   0.146575  -0.050335  -0.429843   0.044496
   60  H  4  Z   -0.106309  -0.093278   0.081651  -0.088806  -0.097434
   61  H  5  S    0.002228   0.006472  -0.011534   0.006311   0.006961
   62  H  5  S    0.091494   0.239523   0.051327  -0.326828   0.276594
   63  H  5  S    0.014565  -0.168374  -0.261952   0.131785  -0.753191
   64  H  5  S   -0.161381   0.304134  -0.047060   0.217727   0.524610
   65  H  5  X   -0.007526  -0.138918   0.022620  -0.017601  -0.280043
   66  H  5  Y   -0.154612  -0.220049   0.038311   0.044672   0.245483
   67  H  5  Z    0.177913   0.130919   0.143688  -0.159819   0.075594
   68  H  6  S    0.001299  -0.007231  -0.001082  -0.013142   0.006966
   69  H  6  S   -0.239941  -0.155636   0.008902  -0.065460   0.202802
   70  H  6  S   -0.017021   0.187403   0.144446   0.422429  -0.422343
   71  H  6  S    0.469989  -0.344846  -0.232926  -0.347445   0.980415
   72  H  6  X   -0.196703   0.295670  -0.053462  -0.251899  -0.122003
   73  H  6  Y    0.185927   0.182130   0.034622   0.191039  -0.109430
   74  H  6  Z   -0.252726  -0.093673  -0.131006   0.015487  -0.096294

                     41         42         43         44         45
                    1.4933     1.5555     1.6476     1.6775     1.6910
                     A          A          A          A          A   
    1  C  1  S    0.022732   0.012322  -0.005848   0.016128  -0.020952
    2  C  1  S    0.033725   0.021650  -0.010292   0.027611  -0.036114
    3  C  1  X   -0.036525  -0.014999   0.057222   0.013510   0.067007
    4  C  1  Y    0.012475   0.004525   0.001855   0.033320   0.021100
    5  C  1  Z    0.000656  -0.013429   0.006402  -0.026690   0.001226
    6  C  1  S   -0.210596  -0.189500   0.132424  -0.180607   0.066266
    7  C  1  X   -0.099623   0.067226  -0.116652   0.196586  -0.091413
    8  C  1  Y    0.065801   0.002459  -0.010726  -0.081593   0.004772
    9  C  1  Z   -0.025874  -0.020772   0.027024   0.143112   0.041945
   10  C  1  S    2.165758  -2.852535  -1.384049   3.456558  -1.837249
   11  C  1  X    1.011063  -1.265724  -0.793704   1.799456  -0.742921
   12  C  1  Y    0.066002   0.305114   0.016189   0.270900   0.626268
   13  C  1  Z    0.237559  -0.112432   0.036245  -0.197265  -0.133033
   14  C  1  S    0.600797  -1.988667  -0.056975   0.654540   0.457133
   15  C  1  X    0.092756  -0.202067   0.282792  -0.301448   0.227042
   16  C  1  Y    0.029958  -0.089826  -0.009311   0.037553  -0.302199
   17  C  1  Z    0.130896   0.030856   0.123375  -0.063996  -0.143531
   18  C  1 XX    0.009412  -0.179026  -0.435883   0.290371  -0.094523
   19  C  1 YY    0.054415   0.076331   0.190521  -0.184459   0.024098
   20  C  1 ZZ   -0.227001   0.134485   0.218616  -0.112867   0.111283
   21  C  1 XY   -0.135658  -0.034036  -0.079869   0.070266   0.301634
   22  C  1 XZ   -0.005619   0.362203   0.311064  -0.038078   0.002145
   23  C  1 YZ    0.233426   0.138510  -0.166359   0.295322  -0.389619
   24  O  2  S   -0.009306  -0.020102   0.014331  -0.022499   0.034020
   25  O  2  S   -0.014125  -0.030592   0.020795  -0.029465   0.047322
   26  O  2  X   -0.076827   0.098231   0.032310  -0.027925   0.042521
   27  O  2  Y    0.049682   0.020891   0.008843  -0.028347   0.034627
   28  O  2  Z   -0.011537  -0.030590   0.016046  -0.000599   0.020420
   29  O  2  S    0.149912   0.178783  -0.207683   0.413204  -0.532184
   30  O  2  X   -0.252978   0.344252  -0.151392   0.114068   0.087371
   31  O  2  Y    0.197938   0.144975   0.034748  -0.105744   0.139183
   32  O  2  Z   -0.046726  -0.138447  -0.002625   0.015938   0.037964
   33  O  2  S   -0.920076   0.607219   1.574238  -2.846307   1.935584
   34  O  2  X    0.715806  -1.151472   0.125305   0.502727  -0.617866
   35  O  2  Y   -0.399975  -0.413442   0.033852   0.080724  -0.709035
   36  O  2  Z    0.210751  -0.112205  -0.462898   0.297909  -0.239993
   37  O  2  S   -1.656150   3.605808   0.098808  -1.410852   0.219427
   38  O  2  X    0.429075  -0.653430  -0.198564   0.948958  -0.442524
   39  O  2  Y    0.046813   0.066905   0.024671  -0.080548   0.070947
   40  O  2  Z    0.028329  -0.134653  -0.059586   0.413402  -0.059655
   41  O  2 XX   -0.015933   0.034142  -0.004036   0.034547  -0.041743
   42  O  2 YY    0.042940   0.056744  -0.052816   0.035273  -0.100782
   43  O  2 ZZ    0.024080  -0.022907  -0.013834   0.098315  -0.074928
   44  O  2 XY    0.040005  -0.007132   0.005529  -0.010727   0.024199
   45  O  2 XZ    0.006012  -0.059679  -0.038080   0.022052   0.009280
   46  O  2 YZ    0.037705   0.057327  -0.027893   0.006322  -0.037368
   47  H  3  S    0.002791  -0.062376  -0.021841   0.022148   0.021473
   48  H  3  S   -0.222330   0.559280   0.021996   0.005331   0.001252
   49  H  3  S    0.121382  -0.803536  -0.107391  -0.281464   0.287346
   50  H  3  S   -0.080399   0.355256  -0.008282   0.019983  -0.166980
   51  H  3  X   -0.157274   0.562576  -0.152714  -0.075758   0.006632
   52  H  3  Y    0.552680   0.289665  -0.070243  -0.026288   0.543712
   53  H  3  Z    0.221484  -0.199405   0.591785  -0.184983  -0.071719
   54  H  4  S    0.001538   0.015990   0.021786   0.026655  -0.021716
   55  H  4  S   -0.017676  -0.316633  -0.190980   0.011165   0.058876
   56  H  4  S    0.218587   0.224908   0.208544   0.034254  -0.196958
   57  H  4  S   -0.082333   0.262916   0.192144  -0.323533   0.110425
   58  H  4  X    0.151443   0.196369   0.245121  -0.270786  -0.256657
   59  H  4  Y   -0.263901  -0.007286   0.248166  -0.185180  -0.326202
   60  H  4  Z   -0.143289   0.073985  -0.033085   0.233306   0.292591
   61  H  5  S    0.000541   0.019449   0.027528   0.022151  -0.019365
   62  H  5  S   -0.090173  -0.261486   0.151077  -0.328202   0.286317
   63  H  5  S   -0.006144   0.131446  -0.059709   0.283348  -0.470347
   64  H  5  S   -0.106912   0.161084  -0.026490  -0.152829   0.276174
   65  H  5  X   -0.340786   0.237692  -0.117125  -0.250494  -0.014663
   66  H  5  Y    0.080041  -0.170192  -0.182804  -0.473737   0.072986
   67  H  5  Z   -0.248260  -0.048689   0.199321   0.321071   0.273018
   68  H  6  S   -0.017125   0.015824   0.014107   0.023561  -0.041564
   69  H  6  S   -0.257849  -0.108038   0.113161  -0.363117   0.482180
   70  H  6  S    0.158674   0.223720   0.041883   0.304429  -0.380246
   71  H  6  S   -0.006958   0.042823  -0.086173  -0.010678  -0.272018
   72  H  6  X   -0.167078  -0.087003  -0.280427  -0.164954  -0.174230
   73  H  6  Y    0.175863   0.117302  -0.242995  -0.276086  -0.102682
   74  H  6  Z    0.042461   0.104172   0.243923   0.413622  -0.129477

                     46         47         48         49         50
                    1.8336     1.8512     1.9911     2.0481     2.0840
                     A          A          A          A          A   
    1  C  1  S    0.005752   0.001639  -0.007993  -0.003052  -0.019118
    2  C  1  S    0.009308   0.004423  -0.016639   0.003399  -0.039190
    3  C  1  X    0.158621   0.038279   0.009875  -0.035438   0.005070
    4  C  1  Y   -0.010856   0.002601   0.033966  -0.148153   0.042997
    5  C  1  Z    0.090268   0.028560   0.005564  -0.231690  -0.090594
    6  C  1  S    0.109397   0.243353   0.321986   0.366239   0.682290
    7  C  1  X    0.523636   0.374657   0.384969   0.222788   0.640972
    8  C  1  Y    0.038483  -0.034760  -0.019468  -0.007631  -0.019638
    9  C  1  Z    0.159541   0.045388   0.073576  -0.011751   0.093568
   10  C  1  S    3.917032   3.446942   2.844745   1.028101   4.522719
   11  C  1  X    2.048277   1.437018   0.812934   0.308823   1.477278
   12  C  1  Y   -0.322874   0.601389   0.177397  -0.638478   0.065334
   13  C  1  Z    0.583318   0.929863   0.179198  -0.999297  -0.094370
   14  C  1  S    1.017469   0.764818   0.842523   0.318576   0.978212
   15  C  1  X    0.186024  -0.003544  -0.077125  -0.102367   0.235555
   16  C  1  Y    0.259161  -0.212021  -0.027780  -0.148471   0.255697
   17  C  1  Z    0.320446  -0.208812  -0.190010  -0.206551   0.422314
   18  C  1 XX    0.187489   0.223887   0.117656   0.000271   0.224301
   19  C  1 YY   -0.151177  -0.170727   0.508765   0.072604  -0.369623
   20  C  1 ZZ    0.065972   0.034076  -0.570452   0.154944   0.262876
   21  C  1 XY   -0.192145   0.693414  -0.038530   0.359090  -0.400590
   22  C  1 XZ    0.423761   0.043574   0.134702  -0.034360  -0.208118
   23  C  1 YZ    0.080054   0.197648  -0.000196   0.061414   0.013648
   24  O  2  S   -0.004244  -0.023745  -0.014834  -0.007548  -0.018624
   25  O  2  S   -0.002452  -0.028678  -0.021960  -0.016422  -0.030475
   26  O  2  X    0.042281  -0.006217   0.014140   0.014300   0.039490
   27  O  2  Y    0.007676  -0.050587  -0.003947  -0.031226   0.041517
   28  O  2  Z   -0.040923   0.017028   0.023636   0.012656   0.040713
   29  O  2  S    0.178492   0.491749   0.263261   0.047099   0.310787
   30  O  2  X    0.285510   0.051281   0.039747  -0.097626   0.017125
   31  O  2  Y   -0.007104  -0.120601   0.005418  -0.132673   0.169330
   32  O  2  Z   -0.087596   0.160803   0.079115  -0.108766   0.034079
   33  O  2  S   -2.901670  -2.997237  -1.810516  -0.299793  -2.597782
   34  O  2  X    1.026377   1.193463   1.199411   1.090480   2.232940
   35  O  2  Y    0.289207  -0.587689  -0.017641   0.110079  -0.062496
   36  O  2  Z    0.093181  -0.337032   0.133323   0.901296   0.889356
   37  O  2  S   -2.976798  -1.961998  -1.495246  -0.396962  -2.751996
   38  O  2  X    1.023678   0.889967   0.695157   0.202868   0.755688
   39  O  2  Y   -0.060373   0.098940   0.006360   0.056217  -0.055658
   40  O  2  Z    0.112257   0.347298   0.382745   0.249264   0.143710
   41  O  2 XX    0.057699   0.076114   0.020721  -0.066211  -0.006105
   42  O  2 YY   -0.015576   0.033141   0.109873   0.055136   0.004404
   43  O  2 ZZ    0.029820   0.108386  -0.050237  -0.023966   0.063185
   44  O  2 XY    0.026142  -0.101093  -0.011605  -0.017085   0.027437
   45  O  2 XZ   -0.013970  -0.006720  -0.017812  -0.066714  -0.097741
   46  O  2 YZ   -0.009010   0.076584   0.036403  -0.030291   0.064623
   47  H  3  S    0.049111   0.030103  -0.060827  -0.293818  -0.299525
   48  H  3  S   -0.087016   0.034837  -0.091368  -0.181008  -0.226915
   49  H  3  S    0.069001  -0.197269  -0.409968  -0.648137  -0.501075
   50  H  3  S   -0.199265  -0.077142   0.071851   0.320238   0.099706
   51  H  3  X   -0.279364  -0.308860   0.011474   0.471387   0.371305
   52  H  3  Y   -0.162078   0.365972  -0.019416   0.000849  -0.030439
   53  H  3  Z    0.192734   0.258854   0.364253   0.374625   0.618873
   54  H  4  S    0.152813   0.052681  -0.098920  -0.045264  -0.151049
   55  H  4  S   -0.292431   0.094491   0.178097  -0.067076   0.077966
   56  H  4  S    1.014105   0.220183  -0.372274  -0.363231  -0.250175
   57  H  4  S   -0.368932  -0.201504  -0.101670   0.069775   0.244667
   58  H  4  X   -0.076817   0.046480  -0.117669  -0.350700  -0.412339
   59  H  4  Y   -0.107190   0.247078  -0.155309   0.188756  -0.310141
   60  H  4  Z    0.727426  -0.009886  -0.098668   0.032752  -0.088379
   61  H  5  S    0.073986   0.033529  -0.062184   0.145587  -0.149690
   62  H  5  S   -0.250691  -0.252413   0.021293  -0.066255   0.151623
   63  H  5  S    0.265861  -0.024367  -0.146419   0.821289  -0.161170
   64  H  5  S   -0.327029   0.155816  -0.008304  -0.277780  -0.435667
   65  H  5  X   -0.078910   0.479987   0.204454  -0.453915   0.399511
   66  H  5  Y    0.161498   0.048684  -0.343189  -0.317743   0.209531
   67  H  5  Z   -0.179079  -0.083711   0.503681  -0.376587  -0.030645
   68  H  6  S    0.030222   0.063293   0.011282  -0.025792   0.002508
   69  H  6  S   -0.286105  -0.007793  -0.100531  -0.190095  -0.244512
   70  H  6  S    0.217097   0.336457   0.241671  -0.427324   0.263368
   71  H  6  S    0.204781  -0.300931  -0.222619  -0.132392   0.001650
   72  H  6  X    0.172774   0.125678   0.256325   0.122498  -0.060504
   73  H  6  Y    0.176851  -0.048608   0.380813  -0.158509  -0.154480
   74  H  6  Z   -0.147348   0.108289  -0.286553  -0.422313   0.187894

                     51         52         53         54         55
                    2.1461     2.2156     2.3469     2.6334     2.7500
                     A          A          A          A          A   
    1  C  1  S    0.004927   0.004810  -0.012623  -0.060724  -0.003929
    2  C  1  S    0.015103   0.012307  -0.025306  -0.195943  -0.038846
    3  C  1  X   -0.058781   0.022289   0.394612   0.046838  -0.265019
    4  C  1  Y    0.243428   0.050028   0.032182   0.026077  -0.130132
    5  C  1  Z    0.171934   0.065499   0.142330  -0.047545   0.226715
    6  C  1  S    0.044824  -0.128802   0.220989   0.072659  -0.371002
    7  C  1  X   -0.053355  -0.101956   0.076390   0.274244  -0.155036
    8  C  1  Y   -0.066605   0.033892  -0.007105  -0.048918   0.142807
    9  C  1  Z   -0.084475  -0.006808  -0.005854   0.052344  -0.233724
   10  C  1  S   -1.107644   0.653893  -0.175329   3.772911   0.124128
   11  C  1  X   -0.614881   0.737573   0.640962   0.522618  -0.238903
   12  C  1  Y    0.443483  -0.064232  -0.008390  -0.058396  -0.019994
   13  C  1  Z    0.076522   0.339713   0.350055  -0.212244   0.383740
   14  C  1  S   -0.359630   0.485927   0.386591   0.764465  -0.333544
   15  C  1  X    0.372286  -0.099735   0.156786   0.069708   0.054215
   16  C  1  Y    0.396936   0.278429   0.179253  -0.011372   0.058781
   17  C  1  Z    0.770547   0.227451   0.411890  -0.130431  -0.000522
   18  C  1 XX   -0.157579  -0.020191   0.542471  -0.025466  -0.556249
   19  C  1 YY    0.043901   0.077339  -0.025613  -0.676456  -0.021684
   20  C  1 ZZ    0.201689  -0.065740  -0.431193  -0.441177  -0.041912
   21  C  1 XY    0.321778  -0.086043   0.040376   0.063210  -0.008812
[...]
   33  O  2  S    0.028087   0.000006   0.038651   0.114833   0.046889
   34  O  2  X   -0.063963  -0.006914  -0.026301   0.003585   0.022613
   35  O  2  Y   -0.039792   0.028499  -0.009313   0.030841  -0.015229
   36  O  2  Z    0.035450   0.019542   0.004311  -0.043657   0.030161
   37  O  2  S    0.884422   0.000420   0.112371  -2.371326  -1.234172
   38  O  2  X    0.199086   0.022562   0.046697   0.697640  -0.007858
   39  O  2  Y   -0.071659  -0.092946   0.034821   0.030595   0.502796
   40  O  2  Z    0.174372  -0.063488  -0.034289   0.200623  -0.735629
   41  O  2 XX    0.001698   0.000958   0.001062  -0.007566  -0.002564
   42  O  2 YY    0.003343  -0.000639   0.000730  -0.008080  -0.002600
   43  O  2 ZZ    0.003205  -0.000316   0.001595  -0.008220   0.001556
   44  O  2 XY    0.001173  -0.002200  -0.001363  -0.000212  -0.001858
   45  O  2 XZ   -0.002015  -0.001508   0.001996   0.000390   0.003537
   46  O  2 YZ   -0.001080  -0.000520   0.000040   0.000454  -0.004036
   47  H  3  S    0.004169   0.000003   0.007768   0.006731   0.008481
   48  H  3  S   -0.053099   0.000023  -0.042593   0.042300  -0.063257
   49  H  3  S   -0.118530  -0.000289   0.293344   0.143389   0.844268
   50  H  3  S   -2.056964  -0.000955  -1.017248  -2.709535  -1.308206
   51  H  3  X   -0.008233   0.000825  -0.000758  -0.000795   0.004173
   52  H  3  Y    0.005567  -0.003436   0.002746  -0.002594  -0.010651
   53  H  3  Z   -0.010997  -0.002369  -0.004265   0.003496   0.016978
   54  H  4  S   -0.006875  -0.000003   0.014774   0.009555   0.033310
   55  H  4  S   -0.010807   0.000014  -0.018137  -0.026026  -0.104875
   56  H  4  S   -0.024347  -0.000125   0.387000   0.180291   0.883518
   57  H  4  S    2.602748   0.000493  -4.213042  -0.726957   5.103225
   58  H  4  X   -0.002688  -0.000704   0.001300   0.010341  -0.007502
   59  H  4  Y    0.002177   0.002922  -0.002442   0.005601   0.007032
   60  H  4  Z   -0.004121   0.002006   0.004016  -0.004528  -0.012879
   61  H  5  S    0.000331   0.014828  -0.009138   0.007860  -0.019029
   62  H  5  S    0.006309  -0.016379   0.026635  -0.021858   0.083339
   63  H  5  S    0.076073   0.353392  -0.275128   0.102603  -0.768827
   64  H  5  S    0.505278  -4.155850   2.333148   1.396682  -2.940689
   65  H  5  X   -0.001417   0.003348  -0.003142   0.005182   0.006577
   66  H  5  Y   -0.001006   0.000361   0.002285   0.005995  -0.010304
   67  H  5  Z    0.000975  -0.004463  -0.000834   0.007531   0.001787
   68  H  6  S    0.000339  -0.014827  -0.009135   0.007857  -0.019013
   69  H  6  S    0.006317   0.016414   0.026623  -0.021842   0.083280
   70  H  6  S    0.076222  -0.353528  -0.275063   0.102581  -0.768365
   71  H  6  S    0.502713   4.155819   2.332660   1.397337  -2.937857
   72  H  6  X   -0.001414  -0.002244  -0.002364   0.008309   0.003207
   73  H  6  Y   -0.001006  -0.004952  -0.000951  -0.006970   0.003636
   74  H  6  Z    0.000969   0.001314  -0.003052  -0.001365   0.011362

                     16         17         18         19
                    0.1592     0.1834     0.2825     0.2880
                     A          A          A          A   
    1  C  1  S    0.000002   0.030231   0.012667  -0.024218
    2  C  1  S    0.000004   0.050856   0.021393  -0.052088
    3  C  1  X   -0.002700   0.039274  -0.014159   0.030543
    4  C  1  Y    0.011195   0.009262  -0.025715   0.012705
    5  C  1  Z    0.007674   0.000322   0.032285  -0.007707
    6  C  1  S   -0.000000  -0.187477  -0.079134  -0.028416
    7  C  1  X   -0.010396   0.032789  -0.044470  -0.006423
    8  C  1  Y    0.043057   0.001406  -0.019157   0.011557
    9  C  1  Z    0.029517   0.009457   0.012163  -0.019051
   10  C  1  S   -0.000025   0.222596   0.033683   2.151679
   11  C  1  X   -0.009517   0.441986   0.094400   0.446164
   12  C  1  Y    0.039589   0.114682  -0.354047   0.028082
   13  C  1  Z    0.027163  -0.011509   0.546759   0.116629
   14  C  1  S    0.000571  15.604976   2.440600   2.058141
   15  C  1  X    0.910693  -1.059417   0.268491   0.197530
   16  C  1  Y   -3.774544   0.232600  -0.696007  -0.588090
   17  C  1  Z   -2.587820  -0.710535   1.108388   0.925737
   18  C  1 XX    0.002986   0.001132   0.003293  -0.045642
   19  C  1 YY   -0.031439  -0.017917  -0.010169  -0.048228
   20  C  1 ZZ    0.028464  -0.023305  -0.003374  -0.051019
   21  C  1 XY   -0.002771   0.005041  -0.002899   0.007950
   22  C  1 XZ   -0.010680  -0.000673   0.010493  -0.009240
   23  C  1 YZ    0.011488   0.006179  -0.004415  -0.002542
   24  O  2  S   -0.000000   0.006531  -0.022235   0.022557
   25  O  2  S   -0.000001   0.010114  -0.041404   0.041948
   26  O  2  X   -0.004715  -0.029401   0.010326  -0.031173
   27  O  2  Y    0.019560  -0.001525  -0.055630  -0.020769
   28  O  2  Z    0.013412  -0.008114   0.084602   0.019324
   29  O  2  S   -0.000001  -0.050099   0.083363  -0.109263
   30  O  2  X   -0.010533  -0.040058   0.001775  -0.003091
   31  O  2  Y    0.043686  -0.004924  -0.069279  -0.002554
   32  O  2  Z    0.029959  -0.006909   0.101484   0.002658
   33  O  2  S    0.000041   0.049964   0.662387  -0.510957
   34  O  2  X    0.008475  -0.056050   0.066026  -0.226910
   35  O  2  Y   -0.035066   0.025653  -0.202397  -0.149153
   36  O  2  Z   -0.024021  -0.057069   0.317749   0.137641
   37  O  2  S   -0.000664  -2.911016   0.001336  -2.216208
   38  O  2  X   -0.130932   0.805758   0.486247   1.747405
   39  O  2  Y    0.542755   0.104427   0.262684   1.223822
   40  O  2  Z    0.371795   0.131047  -0.210438  -1.168850
   41  O  2 XX    0.000156  -0.007119  -0.015833   0.022574
   42  O  2 YY   -0.003151  -0.003329  -0.009729   0.003734
   43  O  2 ZZ    0.002993  -0.004249  -0.011069   0.004744
   44  O  2 XY    0.000062  -0.000452   0.005200   0.006991
   45  O  2 XZ   -0.000864  -0.001157  -0.008726  -0.000950
   46  O  2 YZ    0.001268   0.000993  -0.003594  -0.004140
   47  H  3  S   -0.000004   0.001372  -0.070083   0.019787
   48  H  3  S   -0.000062   0.042017   0.147864   0.026126
   49  H  3  S    0.000636   0.119361  -2.756022   1.649209
   50  H  3  S   -0.000560  -0.302884   0.917913  -1.436819
   51  H  3  X   -0.001220  -0.002313  -0.015550   0.016041
   52  H  3  Y    0.005068  -0.005307   0.005236   0.003932
   53  H  3  Z    0.003491   0.006913  -0.013057  -0.000095
   54  H  4  S    0.000007  -0.026247   0.027572  -0.009357
   55  H  4  S   -0.000032   0.162008   0.055704   0.073241
   56  H  4  S    0.000264  -1.649421   1.217855  -0.493104
   57  H  4  S    0.001340  -4.437419   0.342504   0.796094
   58  H  4  X    0.002635  -0.003203  -0.006415   0.008226
   59  H  4  Y   -0.010930  -0.001022   0.002096  -0.005286
   60  H  4  Z   -0.007504   0.000365  -0.005321   0.010598
   61  H  5  S    0.031441  -0.016847  -0.006041  -0.011961
   62  H  5  S   -0.121425   0.132044  -0.087446  -0.069606
   63  H  5  S    1.056110  -1.301609  -0.528997  -0.272864
   64  H  5  S    5.012312  -2.987137  -1.128520  -0.418695
   65  H  5  X   -0.007051  -0.007524  -0.008523   0.000491
   66  H  5  Y   -0.002785   0.001857  -0.000652  -0.003419
   67  H  5  Z    0.012722   0.002131   0.001023  -0.003679
   68  H  6  S   -0.031455  -0.016843  -0.006090  -0.011952
   69  H  6  S    0.121443   0.132036  -0.087560  -0.069603
   70  H  6  S   -1.056494  -1.301213  -0.532889  -0.271884
   71  H  6  S   -5.013563  -2.985976  -1.125922  -0.420295
   72  H  6  X    0.004640  -0.005904  -0.007865  -0.001423
   73  H  6  Y    0.012779  -0.004864  -0.003375   0.004495
   74  H  6  Z   -0.005858  -0.002475  -0.000871   0.001762

     ----------------------------------------------------------------
     PROPERTY VALUES FOR THE UHF   SELF-CONSISTENT FIELD WAVEFUNCTION
     ----------------------------------------------------------------

          -----------------
          ENERGY COMPONENTS
          -----------------

         WAVEFUNCTION NORMALIZATION =       1.0000000000

                ONE ELECTRON ENERGY =    -237.7501951568
                TWO ELECTRON ENERGY =      81.8672597545
           NUCLEAR REPULSION ENERGY =      40.8023328610
                                      ------------------
                       TOTAL ENERGY =    -115.0806025412

 ELECTRON-ELECTRON POTENTIAL ENERGY =      81.8672597545
  NUCLEUS-ELECTRON POTENTIAL ENERGY =    -352.8007555734
   NUCLEUS-NUCLEUS POTENTIAL ENERGY =      40.8023328610
                                      ------------------
             TOTAL POTENTIAL ENERGY =    -230.1311629579
               TOTAL KINETIC ENERGY =     115.0505604167
                 VIRIAL RATIO (V/T) =       2.0002611211

          ---------------------------------------
          MULLIKEN AND LOWDIN POPULATION ANALYSES
          ---------------------------------------

     ATOMIC MULLIKEN POPULATION IN EACH MOLECULAR ORBITAL
        ALPHA ORBITALS

                      1          2          3          4          5

                  1.000000   1.000000   1.000000   1.000000   1.000000

    1            -0.000036   0.999894   0.155779   0.530024   0.245381
    2             0.999996  -0.000057   0.761416   0.154061   0.478493
    3             0.000032   0.000003   0.088629   0.048255   0.161670
    4             0.000007   0.000053  -0.001868   0.096977   0.004314
    5             0.000001   0.000054  -0.001978   0.085356   0.055040
    6             0.000001   0.000054  -0.001977   0.085327   0.055102

                      6          7          8          9

                  1.000000   1.000000   1.000000   1.000000

    1             0.393472   0.387782   0.255868   0.141242
    2             0.324855   0.420706   0.411931   0.637673
    3             0.003478   0.009390   0.050670   0.008125
    4             0.001572   0.181055   0.151103   0.000754
    5             0.138359   0.000532   0.065119   0.106159
    6             0.138264   0.000535   0.065308   0.106047

     ATOMIC MULLIKEN POPULATION IN EACH MOLECULAR ORBITAL
         BETA ORBITALS

                      1          2          3          4          5

                  1.000000   1.000000   1.000000   1.000000   1.000000

    1            -0.000036   0.999894   0.155779   0.530024   0.245381
    2             0.999996  -0.000057   0.761416   0.154061   0.478493
    3             0.000032   0.000003   0.088629   0.048255   0.161670
    4             0.000007   0.000053  -0.001868   0.096977   0.004314
    5             0.000001   0.000054  -0.001978   0.085356   0.055040
    6             0.000001   0.000054  -0.001977   0.085327   0.055102

                      6          7          8          9

                  1.000000   1.000000   1.000000   1.000000

    1             0.393472   0.387782   0.255868   0.141242
    2             0.324855   0.420706   0.411931   0.637673
    3             0.003478   0.009390   0.050670   0.008125
    4             0.001572   0.181055   0.151103   0.000754
    5             0.138359   0.000532   0.065119   0.106159
    6             0.138264   0.000535   0.065308   0.106047

     ATOMIC SPIN POPULATION (ALPHA MINUS BETA)
       ATOM         MULL.POP.                    LOW.POP.
    1 C             0.000000                     0.000000
    2 O             0.000000                     0.000000
    3 H             0.000000                     0.000000
    4 H             0.000000                     0.000000
    5 H             0.000000                     0.000000
    6 H             0.000000                     0.000000


          ********* ALL ELECTRONS ********

               ----- POPULATIONS IN EACH AO -----
                             MULLIKEN      LOWDIN
              1  C  1  S      1.10345     1.04607
              2  C  1  S      0.89030     0.91023
              3  C  1  X      0.15667     0.15816
              4  C  1  Y      0.20834     0.20423
              5  C  1  Z      0.21278     0.20862
              6  C  1  S      0.70992     0.36767
              7  C  1  X      0.44645     0.42073
              8  C  1  Y      0.53404     0.48452
              9  C  1  Z      0.54275     0.49376
             10  C  1  S      0.47011     0.21114
             11  C  1  X      0.10654     0.20356
             12  C  1  Y      0.29378     0.32506
             13  C  1  Z      0.31846     0.33238
             14  C  1  S      0.11981     0.04592
             15  C  1  X      0.00353     0.02046
             16  C  1  Y     -0.00232     0.03813
             17  C  1  Z     -0.00107     0.03852
             18  C  1 XX      0.03532     0.16913
             19  C  1 YY      0.00948     0.14599
             20  C  1 ZZ      0.00592     0.13903
             21  C  1 XY      0.02140     0.04024
             22  C  1 XZ      0.02519     0.04743
             23  C  1 YZ      0.00796     0.01279
             24  O  2  S      1.08353     1.03201
             25  O  2  S      0.91188     0.93147
             26  O  2  X      0.26050     0.26098
             27  O  2  Y      0.35489     0.36226
             28  O  2  Z      0.31916     0.32310
             29  O  2  S      0.97692     0.54012
             30  O  2  X      0.62549     0.58371
             31  O  2  Y      0.78251     0.76253
             32  O  2  Z      0.71917     0.69063
             33  O  2  S      0.83350     0.37690
             34  O  2  X      0.38656     0.40685
             35  O  2  Y      0.61121     0.55090
             36  O  2  Z      0.51666     0.49780
             37  O  2  S     -0.05755     0.09484
             38  O  2  X     -0.00962     0.08971
             39  O  2  Y      0.03392     0.10542
             40  O  2  Z      0.01437     0.09618
             41  O  2 XX      0.00846     0.19217
             42  O  2 YY     -0.00359     0.18308
             43  O  2 ZZ      0.00216     0.18600
             44  O  2 XY      0.00267     0.00365
             45  O  2 XZ      0.00242     0.00401
             46  O  2 YZ      0.00292     0.00324
             47  H  3  S      0.27331     0.27816
             48  H  3  S      0.38426     0.32252
             49  H  3  S      0.01157     0.07833
             50  H  3  S     -0.00131     0.01896
             51  H  3  X      0.02102     0.04316
             52  H  3  Y      0.02360     0.05911
             53  H  3  Z      0.02805     0.06787
             54  H  4  S      0.27142     0.27590
             55  H  4  S      0.52330     0.42471
             56  H  4  S      0.05779     0.13810
             57  H  4  S     -0.00810     0.02602
             58  H  4  X      0.00365     0.01025
             59  H  4  Y      0.00709     0.01638
             60  H  4  Z      0.01278     0.02551
             61  H  5  S      0.27155     0.27702
             62  H  5  S      0.53501     0.43273
             63  H  5  S      0.07043     0.14545
             64  H  5  S     -0.00282     0.02631
             65  H  5  X      0.00486     0.01328
             66  H  5  Y      0.00575     0.01454
             67  H  5  Z      0.01251     0.02473
             68  H  6  S      0.27153     0.27930
             69  H  6  S      0.53502     0.43495
             70  H  6  S      0.07047     0.14558
             71  H  6  S     -0.00280     0.02632
             72  H  6  X      0.00201     0.00865
             73  H  6  Y      0.01651     0.03145
             74  H  6  Z      0.00459     0.01338

          ----- MULLIKEN ATOMIC OVERLAP POPULATIONS -----
          (OFF-DIAGONAL ELEMENTS NEED TO BE MULTIPLIED BY 2)

             1           2           3           4           5

    1    4.8117984
    2    0.1713114   8.0531278
    3   -0.0300328   0.3164184   0.4607520
    4    0.4333953  -0.0646702   0.0070914   0.5755231
    5    0.4161671  -0.0490290  -0.0068620  -0.0417151   0.6272127
    6    0.4161693  -0.0490093  -0.0068658  -0.0416927  -0.0484872

             6

    6    0.6272083

          TOTAL MULLIKEN AND LOWDIN ATOMIC POPULATIONS
       ATOM         MULL.POP.    CHARGE          LOW.POP.     CHARGE
    1 C             6.218809   -0.218809         6.063764   -0.063764
    2 O             8.378149   -0.378149         8.277547   -0.277547
    3 H             0.740501    0.259499         0.868117    0.131883
    4 H             0.867932    0.132068         0.916875    0.083125
    5 H             0.897287    0.102713         0.934066    0.065934
    6 H             0.897323    0.102677         0.939630    0.060370

          -------------------------------
          BOND ORDER AND VALENCE ANALYSIS     BOND ORDER THRESHOLD=0.050
          -------------------------------

                   BOND                       BOND                       BOND
  ATOM PAIR DIST  ORDER      ATOM PAIR DIST  ORDER      ATOM PAIR DIST  ORDER
    1   2  1.400  0.878        1   4  1.082  1.001        1   5  1.088  0.990
    1   6  1.088  0.990        2   3  0.940  0.944        2   4  2.008 -0.051

                       TOTAL       BONDED        FREE
      ATOM            VALENCE     VALENCE     VALENCE
    1 C                 3.871       3.871      -0.000
    2 O                 1.710       1.710      -0.000
    3 H                 0.958       0.958       0.000
    4 H                 0.915       0.915      -0.000
    5 H                 0.914       0.914       0.000
    6 H                 0.914       0.914      -0.000

          -----------------------------------------
          ATOMIC SPIN DENSITY AT THE NUCLEUS (A.U.)
          -----------------------------------------
                            SPIN DENS    ALPHA DENS     BETA DENS
    1  C            6.0     0.0000000      59.68740      59.68740
    2  O            8.0     0.0000000     147.42051     147.42051
    3  H            1.0     0.0000000       0.21683       0.21683
    4  H            1.0     0.0000000       0.21959       0.21959
    5  H            1.0     0.0000000       0.21990       0.21990
    6  H            1.0     0.0000000       0.21987       0.21987

          ---------------------
          ELECTROSTATIC MOMENTS
          ---------------------

 POINT   1           X           Y           Z (BOHR)    CHARGE
                 1.319516    0.274972   -0.095109        0.00 (A.U.)
         DX          DY          DZ         /D/  (DEBYE)
    -0.956095   -1.105991    1.274634    1.939594
 ...... END OF PROPERTY EVALUATION ......
 STEP CPU TIME =     0.02 TOTAL CPU TIME =       39.6 (    0.7 MIN)
 TOTAL WALL CLOCK TIME=       40.2 SECONDS, CPU UTILIZATION IS  98.48%
  $VIB   
          IVIB=   0 IATOM=   0 ICOORD=   0 E=     -115.0806025412
  6.350988004E-06-2.457044760E-06 4.440683025E-05-1.969027200E-05 4.248338431E-05
 -5.194222301E-05-6.051829051E-06-3.609339657E-05 4.600645498E-05-1.395863618E-05
  1.854315215E-05-1.530956108E-05 2.757752500E-05-3.076956354E-06-2.776572544E-05
  5.772230144E-06-1.939913739E-05 4.604224257E-06
 -9.560945457E-01-1.105991064E+00 1.274633656E+00
 ......END OF GEOMETRY SEARCH......
 STEP CPU TIME =     0.00 TOTAL CPU TIME =       39.6 (    0.7 MIN)
 TOTAL WALL CLOCK TIME=       40.2 SECONDS, CPU UTILIZATION IS  98.48%
               987814  WORDS OF DYNAMIC MEMORY USED
 EXECUTION OF GAMESS TERMINATED NORMALLY Thu Mar 10 23:51:57 2016
 DDI: 263640 bytes (0.3 MB / 0 MWords) used by master data server.

 ----------------------------------------
 CPU timing information for all processes
 ========================================
 0: 36.836 + 2.744 = 39.581
 ----------------------------------------
 ddikick.x: exited gracefully.
----- accounting info -----
Files used on the master node andre-mint were:
-rw-r--r-- 1 andrepd andrepd   953781 Mar 10 23:51 ./7_CH3OH_b.dat
-rw-r--r-- 1 andrepd andrepd      376 Mar 10 23:51 ./7_CH3OH_b.F05
-rw-r--r-- 1 andrepd andrepd 45364032 Mar 10 23:51 ./7_CH3OH_b.F08
-rw-r--r-- 1 andrepd andrepd  2224960 Mar 10 23:51 ./7_CH3OH_b.F10
-rw-r--r-- 1 andrepd andrepd      376 Mar 10 23:50 ./7_CH3OH_b.inp
-rw-r--r-- 1 andrepd andrepd   401898 Mar 10 23:52 ./7_CH3OH_b.out
Qui Mar 10 23:52:01 WET 2016
0.0u 0.0s 0:43.79 0.2% 0+0k 0+8io 0pf+0w
