----- GAMESS execution script 'rungms' -----
This job is running on host Clevo
under operating system Linux at Mon Mar 7 00:08:34 WET 2016
Available scratch disk space (Kbyte units) at beginning of the job is
Filesystem                                             1K-blocks     Used Available Use% Mounted on
/dev/disk/by-uuid/c2905ecd-da6a-4deb-abcc-9980c215dfc9  34319120 18821624  13731096  58% /
GAMESS temporary binary files will be written to /tmp
GAMESS supplementary output files will be written to .
Copying input file H2O_RHF_MP2_augccpVTZ_hessian.inp to your run's scratch directory...

 Distributed Data Interface kickoff program.
 Initiating 2 compute processes on 1 nodes to run the following command:
 /home/sagar/gamess/gamess.01.x H2O_RHF_MP2_augccpVTZ_hessian 

          ******************************************************
          *         GAMESS VERSION =  5 DEC 2014 (R1)          *
          *             FROM IOWA STATE UNIVERSITY             *
          * M.W.SCHMIDT, K.K.BALDRIDGE, J.A.BOATZ, S.T.ELBERT, *
          *   M.S.GORDON, J.H.JENSEN, S.KOSEKI, N.MATSUNAGA,   *
          *          K.A.NGUYEN, S.J.SU, T.L.WINDUS,           *
          *       TOGETHER WITH M.DUPUIS, J.A.MONTGOMERY       *
          *         J.COMPUT.CHEM.  14, 1347-1363(1993)        *
          **************** 64 BIT LINUX VERSION ****************

  SINCE 1993, STUDENTS AND POSTDOCS WORKING AT IOWA STATE UNIVERSITY
  AND ALSO IN THEIR VARIOUS JOBS AFTER LEAVING ISU HAVE MADE IMPORTANT
  CONTRIBUTIONS TO THE CODE:
     IVANA ADAMOVIC, CHRISTINE AIKENS, YURI ALEXEEV, POOJA ARORA,
     ANDREY ASADCHEV, ROB BELL, PRADIPTA BANDYOPADHYAY, JONATHAN BENTZ,
     BRETT BODE, KURT BRORSEN, CALEB CARLIN, GALINA CHABAN, WEI CHEN,
     CHEOL HO CHOI, PAUL DAY, ALBERT DEFUSCO, NUWAN DESILVA, TIM DUDLEY,
     DMITRI FEDOROV, GRAHAM FLETCHER, MARK FREITAG, KURT GLAESEMANN,
     DAN KEMP, GRANT MERRILL, NORIYUKI MINEZAWA, JONATHAN MULLIN,
     TAKESHI NAGATA, SEAN NEDD, HEATHER NETZLOFF, BOSILJKA NJEGIC, RYAN OLSON,
     MIKE PAK, SPENCER PRUITT, LUKE ROSKOP, JIM SHOEMAKER, LYUDMILA SLIPCHENKO,
     TONY SMITH, SAROM SOK, JIE SONG, TETSUYA TAKETSUGU, SIMON WEBB,
     PENG XU, SOOHAENG YOO, FEDERICO ZAHARIEV

  ADDITIONAL CODE HAS BEEN PROVIDED BY COLLABORATORS IN OTHER GROUPS:
     IOWA STATE UNIVERSITY:
          JOE IVANIC, AARON WEST, LAIMUTIS BYTAUTAS, KLAUS RUEDENBERG
     UNIVERSITY OF TOKYO: KIMIHIKO HIRAO, TAKAHITO NAKAJIMA,
          TAKAO TSUNEDA, MUNEAKI KAMIYA, SUSUMU YANAGISAWA,
          KIYOSHI YAGI, MAHITO CHIBA, SEIKEN TOKURA, NAOAKI KAWAKAMI
     UNIVERSITY OF AARHUS: FRANK JENSEN
     UNIVERSITY OF IOWA: VISVALDAS KAIRYS, HUI LI
     NATIONAL INST. OF STANDARDS AND TECHNOLOGY: WALT STEVENS, DAVID GARMER
     UNIVERSITY OF PISA: BENEDETTA MENNUCCI, JACOPO TOMASI
     UNIVERSITY OF MEMPHIS: HENRY KURTZ, PRAKASHAN KORAMBATH
     UNIVERSITY OF ALBERTA: TOBY ZENG, MARIUSZ KLOBUKOWSKI
     UNIVERSITY OF NEW ENGLAND: MARK SPACKMAN
     MIE UNIVERSITY: HIROAKI UMEDA
     NAT. INST. OF ADVANCED INDUSTRIAL SCIENCE AND TECHNOLOGY: KAZUO KITAURA
     MICHIGAN STATE UNIVERSITY:
          KAROL KOWALSKI, MARTA WLOCH, JEFFREY GOUR, JESSE LUTZ,
          WEI LI, PIOTR PIECUCH
     UNIVERSITY OF SILESIA: MONIKA MUSIAL, STANISLAW KUCHARSKI
     FACULTES UNIVERSITAIRES NOTRE-DAME DE LA PAIX:
          OLIVIER QUINET, BENOIT CHAMPAGNE
     UNIVERSITY OF CALIFORNIA - SANTA BARBARA: BERNARD KIRTMAN
     INSTITUTE FOR MOLECULAR SCIENCE:
          KAZUYA ISHIMURA, MICHIO KATOUDA, AND SHIGERU NAGASE
     UNIVERSITY OF NOTRE DAME: ANNA POMOGAEVA, DAN CHIPMAN
     KYUSHU UNIVERSITY:
          HARUYUKI NAKANO,
          FENG LONG GU, JACEK KORCHOWIEC, MARCIN MAKOWSKI, AND YURIKO AOKI,
          HIROTOSHI MORI AND EISAKU MIYOSHI
     PENNSYLVANIA STATE UNIVERSITY:
          TZVETELIN IORDANOV, CHET SWALINA, JONATHAN SKONE,
          SHARON HAMMES-SCHIFFER
     WASEDA UNIVERSITY:
          MASATO KOBAYASHI, TOMOKO AKAMA, TSUGUKI TOUMA,
          TAKESHI YOSHIKAWA, YASUHIRO IKABATA, HIROMI NAKAI
     NANJING UNIVERSITY: SHUHUA LI
     UNIVERSITY OF NEBRASKA:
          PEIFENG SU, DEJUN SI, NANDUN THELLAMUREGE, YALI WANG, HUI LI
     UNIVERSITY OF ZURICH: ROBERTO PEVERATI, KIM BALDRIDGE
     N. COPERNICUS UNIVERSITY AND JACKSON STATE UNIVERSITY:
          MARIA BARYSZ
     UNIVERSITY OF COPENHAGEN: CASPER STEINMANN
     TOKYO INSTITUTE OF TECHNOLOGY: HIROYA NAKATA
     NAGOYA UNIVERSITY: YOSHIO NISHIMOTO, STEPHAN IRLE


 PARALLEL VERSION RUNNING ON        2 PROCESSORS IN        1 NODES.

 EXECUTION OF GAMESS BEGUN Mon Mar  7 00:08:34 2016

            ECHO OF THE FIRST FEW INPUT CARDS -
 INPUT CARD> $CONTRL SCFTYP=RHF MPLEVL=2 RUNTYP=HESSIAN ISPHER=1 $END                       
 INPUT CARD> $BASIS GBASIS=ACCT $END                                                        
 INPUT CARD> $DATA                                                                          
 INPUT CARD>H2O                                                                             
 INPUT CARD>C1                                                                              
 INPUT CARD> H 1 0.0000000000 -0.7581334599 -0.0303858562                                   
 INPUT CARD> H 1 0.0000000000 0.7581334598 -0.0303858561                                    
 INPUT CARD> O 8 0.0000000000 0.0000000001 0.5607717123                                     
 INPUT CARD> $END                                                                           
    1000000 WORDS OF MEMORY AVAILABLE

     BASIS OPTIONS
     -------------
     GBASIS=ACCT         IGAUSS=       0      POLAR=NONE    
     NDFUNC=       0     NFFUNC=       0     DIFFSP=       F
     NPFUNC=       0      DIFFS=       F     BASNAM=        


     RUN TITLE
     ---------
 H2O                                                                             

 THE POINT GROUP OF THE MOLECULE IS C1      
 THE ORDER OF THE PRINCIPAL AXIS IS     0

 ATOM      ATOMIC                      COORDINATES (BOHR)
           CHARGE         X                   Y                   Z
 H           1.0     0.0000000000       -1.4326645013       -0.0574209421
 H           1.0     0.0000000000        1.4326645011       -0.0574209419
 O           8.0     0.0000000000        0.0000000002        1.0597048779

          INTERNUCLEAR DISTANCES (ANGS.)
          ------------------------------

                1 H          2 H          3 O     

   1 H       0.0000000    1.5162669 *  0.9613707 *
   2 H       1.5162669 *  0.0000000    0.9613707 *
   3 O       0.9613707 *  0.9613707 *  0.0000000  

  * ... LESS THAN  3.000


     ATOMIC BASIS SET
     ----------------
 THE CONTRACTED PRIMITIVE FUNCTIONS HAVE BEEN UNNORMALIZED
 THE CONTRACTED BASIS FUNCTIONS ARE NOW NORMALIZED TO UNITY

  SHELL TYPE  PRIMITIVE        EXPONENT          CONTRACTION COEFFICIENT(S)

 H         

      1   S       1            33.8700000    0.025494863235
      1   S       2             5.0950000    0.190362765893
      1   S       3             1.1590000    0.852162022245

      2   S       4             0.3258000    1.000000000000

      3   S       5             0.1027000    1.000000000000

      4   P       6             1.4070000    1.000000000000

      5   P       7             0.3880000    1.000000000000

      6   D       8             1.0570000    1.000000000000

      7   S       9             0.0252600    1.000000000000

      8   P      10             0.1020000    1.000000000000

      9   D      11             0.2470000    1.000000000000

 H         

     10   S      12            33.8700000    0.025494863235
     10   S      13             5.0950000    0.190362765893
     10   S      14             1.1590000    0.852162022245

     11   S      15             0.3258000    1.000000000000

     12   S      16             0.1027000    1.000000000000

     13   P      17             1.4070000    1.000000000000

     14   P      18             0.3880000    1.000000000000

     15   D      19             1.0570000    1.000000000000

     16   S      20             0.0252600    1.000000000000

     17   P      21             0.1020000    1.000000000000

     18   D      22             0.2470000    1.000000000000

 O         

     19   S      23         15330.0000000    0.000520198307
     19   S      24          2299.0000000    0.004023344781
     19   S      25           522.4000000    0.020729083329
     19   S      26           147.3000000    0.081082327080
     19   S      27            47.5500000    0.236226352118
     19   S      28            16.7600000    0.443518209420
     19   S      29             6.2070000    0.358670588689
     19   S      30             0.6882000   -0.008349797237

     20   S      31         15330.0000000   -0.000197236012
     20   S      32          2299.0000000   -0.001535010700
     20   S      33           522.4000000   -0.007951183914
     20   S      34           147.3000000   -0.032113452892
     20   S      35            47.5500000   -0.100269643049
     20   S      36            16.7600000   -0.234047111838
     20   S      37             6.2070000   -0.301410927756
     20   S      38             0.6882000    1.034919649508

     21   S      39             1.7520000    1.000000000000

     22   S      40             0.2384000    1.000000000000

     23   P      41            34.4600000    0.041163489568
     23   P      42             7.7490000    0.257762835858
     23   P      43             2.2800000    0.802419274427

     24   P      44             0.7156000    1.000000000000

     25   P      45             0.2140000    1.000000000000

     26   D      46             2.3140000    1.000000000000

     27   D      47             0.6450000    1.000000000000

     28   F      48             1.4280000    1.000000000000

     29   S      49             0.0737600    1.000000000000

     30   P      50             0.0597400    1.000000000000

     31   D      51             0.2140000    1.000000000000

     32   F      52             0.5000000    1.000000000000

 TOTAL NUMBER OF BASIS SET SHELLS             =   32
 NUMBER OF CARTESIAN GAUSSIAN BASIS FUNCTIONS =  105
 NOTE: THIS RUN WILL RESTRICT THE MO VARIATION SPACE TO SPHERICAL HARMONICS.
 THE NUMBER OF ORBITALS KEPT IN THE VARIATIONAL SPACE WILL BE PRINTED LATER.
 NUMBER OF ELECTRONS                          =   10
 CHARGE OF MOLECULE                           =    0
 SPIN MULTIPLICITY                            =    1
 NUMBER OF OCCUPIED ORBITALS (ALPHA)          =    5
 NUMBER OF OCCUPIED ORBITALS (BETA )          =    5
 TOTAL NUMBER OF ATOMS                        =    3
 THE NUCLEAR REPULSION ENERGY IS        9.1560461160

     $CONTRL OPTIONS
     ---------------
 SCFTYP=RHF          RUNTYP=HESSIAN      EXETYP=RUN     
 MPLEVL=       2     CITYP =NONE         CCTYP =NONE         VBTYP =NONE    
 DFTTYP=NONE         TDDFT =NONE    
 MULT  =       1     ICHARG=       0     NZVAR =       0     COORD =UNIQUE  
 PP    =NONE         RELWFN=NONE         LOCAL =NONE         NUMGRD=       F
 ISPHER=       1     NOSYM =       0     MAXIT =      30     UNITS =ANGS    
 PLTORB=       F     MOLPLT=       F     AIMPAC=       F     FRIEND=        
 NPRINT=       7     IREST =       0     GEOM  =INPUT   
 NORMF =       0     NORMP =       0     ITOL  =      20     ICUT  =       9
 INTTYP=BEST         GRDTYP=BEST         QMTTOL= 1.0E-06

     $SYSTEM OPTIONS
     ---------------
  REPLICATED MEMORY=     1000000 WORDS (ON EVERY NODE).
 DISTRIBUTED MEMDDI=           0 MILLION WORDS IN AGGREGATE,
 MEMDDI DISTRIBUTED OVER   2 PROCESSORS IS           0 WORDS/PROCESSOR.
 TOTAL MEMORY REQUESTED ON EACH PROCESSOR=     1000000 WORDS.
 TIMLIM=      525600.00 MINUTES, OR     365.0 DAYS.
 PARALL= T  BALTYP=  DLB     KDIAG=    0  COREFL= F
 MXSEQ2=     300 MXSEQ3=     150  mem10=         0

          ----------------
          PROPERTIES INPUT
          ----------------

     MOMENTS            FIELD           POTENTIAL          DENSITY
 IEMOM =       1   IEFLD =       0   IEPOT =       0   IEDEN =       0
 WHERE =COMASS     WHERE =NUCLEI     WHERE =NUCLEI     WHERE =NUCLEI  
 OUTPUT=BOTH       OUTPUT=BOTH       OUTPUT=BOTH       OUTPUT=BOTH    
 IEMINT=       0   IEFINT=       0                     IEDINT=       0
                                                       MORB  =       0
          EXTRAPOLATION IN EFFECT
          SOSCF IN EFFECT
 ORBITAL PRINTING OPTION: NPREO=     1   105     2     1

     -------------------------------
     INTEGRAL TRANSFORMATION OPTIONS
     -------------------------------
     NWORD  =            0
     CUTOFF = 1.0E-09     MPTRAN =       0
     DIRTRF =       F     AOINTS =DUP     

          ----------------------
          INTEGRAL INPUT OPTIONS
          ----------------------
 NOPK  =       1 NORDER=       0 SCHWRZ=       F

          -----------------------
          MP2 CONTROL INFORMATION
          -----------------------
          NACORE =        1  NBCORE =        1
          LMOMP2 =        F  AOINTS = DUP     
          METHOD =        2  NWORD  =               0
          MP2PRP =        F  OSPT   = NONE    
          CUTOFF = 1.00E-09  CPHFBS = BASISAO 
          CODE   = DDI     

          NUMBER OF CORE -A-  ORBITALS =     1
          NUMBER OF CORE -B-  ORBITALS =     1
          NUMBER OF OCC. -A-  ORBITALS =     5
          NUMBER OF OCC. -B-  ORBITALS =     5
          NUMBER OF MOLECULAR ORBITALS =   105
          NUMBER OF   BASIS  FUNCTIONS =   105


     ------------------------------------------
     THE POINT GROUP IS C1 , NAXIS= 0, ORDER= 1
     ------------------------------------------

 -- VARIATIONAL SPACE WILL BE RESTRICTED TO PURE SPHERICAL HARMONICS ONLY --
 AFTER EXCLUDING CONTAMINANT COMBINATIONS FROM THE CARTESIAN GAUSSIAN BASIS
 SET, THE NUMBER OF SPHERICAL HARMONICS KEPT IN THE VARIATION SPACE IS   92

     DIMENSIONS OF THE SYMMETRY SUBSPACES ARE
 A   =   92

 ..... DONE SETTING UP THE RUN .....
 CPU     0: STEP CPU TIME=     0.02 TOTAL CPU TIME=        0.0 (    0.0 MIN)
 TOTAL WALL CLOCK TIME=        0.0 SECONDS, CPU UTILIZATION IS  66.67%

     ---------------------------------
     HESSIAN MATRIX CONTROL PARAMETERS
     ---------------------------------
     METHOD=SEMINUM    NVIB  =       2   VIBSIZ= 0.01000
     RDHESS=       F   PURIFY=       F   PRTIFC=       F
     VIBANL=       T   DECOMP=       F   PROJCT=       F
     SCLFAC= 1.00000   PRTSCN=       F   NPRT  =       0
     PULCOR=       F   NPUN  =       0   REDOVB=       T
     THERMOCHEMISTRY WILL BE PRINTED FOR    1 TEMPERATURES:
      298.15000
1   ATOM  0
                                        -------------------
   COORD  0                             NUCLEAR COORDINATES
                                        -------------------
     VIB  0

                       ATOM             X              Y              Z

                 1  H                0.000000      -1.432665      -0.057421
                 2  H                0.000000       1.432665      -0.057421
                 3  O                0.000000       0.000000       1.059705

          ********************
          1 ELECTRON INTEGRALS
          ********************
 ...... END OF ONE-ELECTRON INTEGRALS ......
 CPU     0: STEP CPU TIME=     0.01 TOTAL CPU TIME=        0.0 (    0.0 MIN)
 TOTAL WALL CLOCK TIME=        0.0 SECONDS, CPU UTILIZATION IS 100.00%

          -------------
          GUESS OPTIONS
          -------------
          GUESS =HUCKEL            NORB  =       0          NORDER=       0
          MIX   =       F          PRTMO =       F          PUNMO =       F
          TOLZ  = 1.0E-08          TOLE  = 1.0E-05
          SYMDEN=       F          PURIFY=       F

 INITIAL GUESS ORBITALS GENERATED BY HUCKEL   ROUTINE.
 HUCKEL GUESS REQUIRES     81459 WORDS.

 STATISTICS FOR GENERATION OF SYMMETRY ORBITAL -Q- MATRIX
 NUMBER OF CARTESIAN ATOMIC ORBITALS=        105
 NUMBER OF SPHERICAL CONTAMINANTS DROPPED=    13
 NUMBER OF LINEARLY DEPENDENT MOS DROPPED=     0
 TOTAL NUMBER OF MOS IN VARIATION SPACE=      92

 SYMMETRIES FOR INITIAL GUESS ORBITALS FOLLOW.   BOTH SET(S).
     5 ORBITALS ARE OCCUPIED (    1 CORE ORBITALS).
     2=A        3=A        4=A        5=A        6=A        7=A        8=A   
     9=A       10=A       11=A       12=A       13=A       14=A       15=A   
 ...... END OF INITIAL ORBITAL SELECTION ......
 CPU     0: STEP CPU TIME=     0.01 TOTAL CPU TIME=        0.0 (    0.0 MIN)
 TOTAL WALL CLOCK TIME=        0.0 SECONDS, CPU UTILIZATION IS 100.00%

                    ----------------------
                    AO INTEGRAL TECHNOLOGY
                    ----------------------
     S,P,L SHELL ROTATED AXIS INTEGRALS, REPROGRAMMED BY
        KAZUYA ISHIMURA (IMS) AND JOSE SIERRA (SYNSTAR).
     S,P,D,L SHELL ROTATED AXIS INTEGRALS PROGRAMMED BY
        KAZUYA ISHIMURA (INSTITUTE FOR MOLECULAR SCIENCE).
     S,P,D,F,G SHELL TO TOTAL QUARTET ANGULAR MOMENTUM SUM 5,
        ERIC PROGRAM BY GRAHAM FLETCHER (ELORET AND NASA ADVANCED
        SUPERCOMPUTING DIVISION, AMES RESEARCH CENTER).
     S,P,D,F,G,L SHELL GENERAL RYS QUADRATURE PROGRAMMED BY
        MICHEL DUPUIS (PACIFIC NORTHWEST NATIONAL LABORATORY).

          --------------------
          2 ELECTRON INTEGRALS
          --------------------

 THE -PK- OPTION IS OFF, THE INTEGRALS ARE NOT IN SUPERMATRIX FORM.
 STORING   15000 INTEGRALS/RECORD ON DISK, USING 12 BYTES/INTEGRAL.
 TWO ELECTRON INTEGRAL EVALUATION REQUIRES   99628 WORDS OF MEMORY.
 II,JST,KST,LST =  1  1  1  1 NREC =         1 INTLOC =    1
 II,JST,KST,LST =  2  1  1  1 NREC =         1 INTLOC =    1
 II,JST,KST,LST =  3  1  1  1 NREC =         1 INTLOC =    2
 II,JST,KST,LST =  4  1  1  1 NREC =         1 INTLOC =    7
 II,JST,KST,LST =  5  1  1  1 NREC =         1 INTLOC =    7
 II,JST,KST,LST =  6  1  1  1 NREC =         1 INTLOC =   67
 II,JST,KST,LST =  7  1  1  1 NREC =         1 INTLOC =  811
 II,JST,KST,LST =  8  1  1  1 NREC =         1 INTLOC =  811
 II,JST,KST,LST =  9  1  1  1 NREC =         1 INTLOC = 1486
 II,JST,KST,LST = 10  1  1  1 NREC =         1 INTLOC = 4726
 II,JST,KST,LST = 11  1  1  1 NREC =         1 INTLOC = 6052
 II,JST,KST,LST = 12  1  1  1 NREC =         1 INTLOC = 6993
 II,JST,KST,LST = 13  1  1  1 NREC =         1 INTLOC = 9307
 II,JST,KST,LST = 14  1  1  1 NREC =         1 INTLOC =12844
 II,JST,KST,LST = 15  1  1  1 NREC =         2 INTLOC = 4781
 II,JST,KST,LST = 16  1  1  1 NREC =         3 INTLOC = 8926
 II,JST,KST,LST = 17  1  1  1 NREC =         4 INTLOC =  738
 II,JST,KST,LST = 18  1  1  1 NREC =         5 INTLOC =  922
 II,JST,KST,LST = 19  1  1  1 NREC =         7 INTLOC = 5709
 II,JST,KST,LST = 20  1  1  1 NREC =         8 INTLOC = 7345
 II,JST,KST,LST = 21  1  1  1 NREC =         9 INTLOC = 4607
 II,JST,KST,LST = 22  1  1  1 NREC =        11 INTLOC = 2611
 II,JST,KST,LST = 23  1  1  1 NREC =        12 INTLOC = 4246
 II,JST,KST,LST = 24  1  1  1 NREC =        17 INTLOC = 8707
 II,JST,KST,LST = 25  1  1  1 NREC =        24 INTLOC = 5857
 II,JST,KST,LST = 26  1  1  1 NREC =        28 INTLOC =11245
 II,JST,KST,LST = 27  1  1  1 NREC =        46 INTLOC = 2853
 II,JST,KST,LST = 28  1  1  1 NREC =        69 INTLOC = 2363
 II,JST,KST,LST = 29  1  1  1 NREC =       109 INTLOC =14330
 II,JST,KST,LST = 30  1  1  1 NREC =       118 INTLOC =13970
 II,JST,KST,LST = 31  1  1  1 NREC =       133 INTLOC =10103
 II,JST,KST,LST = 32  1  1  1 NREC =       175 INTLOC =14823
 TOTAL NUMBER OF NONZERO TWO-ELECTRON INTEGRALS =             7265286
        485 INTEGRAL RECORDS WERE STORED ON DISK FILE  8.
  ...... END OF TWO-ELECTRON INTEGRALS .....
 CPU     0: STEP CPU TIME=     0.26 TOTAL CPU TIME=        0.3 (    0.0 MIN)
 TOTAL WALL CLOCK TIME=        0.3 SECONDS, CPU UTILIZATION IS  96.77%

          --------------------------
                 RHF SCF CALCULATION
          --------------------------

     NUCLEAR ENERGY =         9.1560461160
     MAXIT =   30     NPUNCH=    2
     EXTRAP=T  DAMP=F  SHIFT=F  RSTRCT=F  DIIS=F  DEM=F  SOSCF=T
     DENSITY MATRIX CONV=  1.00E-06
     SOSCF WILL OPTIMIZE     435 ORBITAL ROTATIONS, SOGTOL=   0.250
     MEMORY REQUIRED FOR RHF ITERS=    110385 WORDS.

 ITER EX DEM     TOTAL ENERGY        E CHANGE  DENSITY CHANGE     ORB. GRAD
   1  0  0      -75.7696129517   -75.7696129517   0.648288942   0.000000000
          ---------------START SECOND ORDER SCF---------------
   2  1  0      -76.0436489957    -0.2740360440   0.075618663   0.036474035
   3  2  0      -76.0585768984    -0.0149279027   0.022269814   0.011936175
   4  3  0      -76.0602134514    -0.0016365530   0.002554159   0.002540345
   5  4  0      -76.0602683056    -0.0000548541   0.001182405   0.001406648
   6  5  0      -76.0602814914    -0.0000131859   0.000158374   0.000163670
   7  6  0      -76.0602819106    -0.0000004191   0.000034443   0.000021862
   8  7  0      -76.0602819182    -0.0000000077   0.000010455   0.000005113
   9  8  0      -76.0602819188    -0.0000000006   0.000002609   0.000000950
  10  9  0      -76.0602819189    -0.0000000000   0.000000719   0.000000247
  11 10  0      -76.0602819189    -0.0000000000   0.000000188   0.000000055

          -----------------
          DENSITY CONVERGED
          -----------------
     TIME TO FORM FOCK OPERATORS=       0.5 SECONDS (       0.0 SEC/ITER)
     TIME TO SOLVE SCF EQUATIONS=       0.0 SECONDS (       0.0 SEC/ITER)

 FINAL RHF ENERGY IS      -76.0602819189 AFTER  11 ITERATIONS

          ------------
          EIGENVECTORS
          ------------

                      1          2          3          4          5
                  -20.5681    -1.3518    -0.7148    -0.5849    -0.5101
                     A          A          A          A          A   
    1  H  1  S    0.000500   0.088105  -0.139805  -0.085474   0.000000
    2  H  1  S    0.000968   0.074249  -0.222347  -0.178130   0.000000
    3  H  1  S   -0.000224  -0.014807  -0.036448  -0.064612   0.000000
    4  H  1  X   -0.000000  -0.000000  -0.000000   0.000000   0.010607
    5  H  1  Y    0.000160   0.010595  -0.009366  -0.009602   0.000000
    6  H  1  Z    0.000101   0.007465  -0.012665   0.001402   0.000000
    7  H  1  X   -0.000000  -0.000000  -0.000000   0.000000   0.029924
    8  H  1  Y    0.000663   0.007859  -0.019366  -0.032552   0.000000
    9  H  1  Z    0.000601   0.005511  -0.028143  -0.001452   0.000000
   10  H  1 XX    0.000060  -0.001166   0.003776   0.001789   0.000000
   11  H  1 YY   -0.000022   0.001075  -0.001657  -0.003789   0.000000
   12  H  1 ZZ   -0.000038   0.000092  -0.002120   0.002000   0.000000
   13  H  1 XY   -0.000000  -0.000000  -0.000000   0.000000   0.003784
   14  H  1 XZ   -0.000000  -0.000000  -0.000000   0.000000   0.002909
   15  H  1 YZ   -0.000119   0.002105  -0.006232  -0.001930   0.000000
   16  H  1  S    0.000025  -0.001379   0.004738  -0.001855   0.000000
   17  H  1  X   -0.000000  -0.000000  -0.000000   0.000000   0.018434
   18  H  1  Y    0.000109  -0.005098   0.008199  -0.004709   0.000000
   19  H  1  Z    0.000077  -0.004297  -0.000210   0.008357   0.000000
   20  H  1 XX   -0.000228   0.000416   0.000282   0.001089   0.000000
   21  H  1 YY    0.000178  -0.000397   0.001993  -0.002884   0.000000
   22  H  1 ZZ    0.000051  -0.000019  -0.002275   0.001794   0.000000
   23  H  1 XY   -0.000000  -0.000000  -0.000000   0.000000   0.006073
   24  H  1 XZ   -0.000000  -0.000000  -0.000000   0.000000   0.004282
   25  H  1 YZ    0.000399  -0.000853  -0.002682   0.001991   0.000000
   26  H  2  S    0.000500   0.088105   0.139805  -0.085474   0.000000
   27  H  2  S    0.000968   0.074249   0.222347  -0.178130   0.000000
   28  H  2  S   -0.000224  -0.014807   0.036448  -0.064612   0.000000
   29  H  2  X   -0.000000  -0.000000  -0.000000   0.000000   0.010607
   30  H  2  Y   -0.000160  -0.010595  -0.009366   0.009602   0.000000
   31  H  2  Z    0.000101   0.007465   0.012665   0.001402   0.000000
   32  H  2  X   -0.000000  -0.000000  -0.000000   0.000000   0.029924
   33  H  2  Y   -0.000663  -0.007859  -0.019366   0.032552   0.000000
   34  H  2  Z    0.000601   0.005511   0.028143  -0.001452   0.000000
   35  H  2 XX    0.000060  -0.001166  -0.003776   0.001789   0.000000
   36  H  2 YY   -0.000022   0.001075   0.001657  -0.003789   0.000000
   37  H  2 ZZ   -0.000038   0.000092   0.002120   0.002000   0.000000
   38  H  2 XY   -0.000000  -0.000000  -0.000000   0.000000  -0.003784
   39  H  2 XZ   -0.000000  -0.000000  -0.000000   0.000000   0.002909
   40  H  2 YZ    0.000119  -0.002105  -0.006232   0.001930   0.000000
   41  H  2  S    0.000025  -0.001379  -0.004738  -0.001855   0.000000
   42  H  2  X   -0.000000  -0.000000  -0.000000   0.000000   0.018434
   43  H  2  Y   -0.000109   0.005098   0.008199   0.004709   0.000000
   44  H  2  Z    0.000077  -0.004297   0.000210   0.008357   0.000000
   45  H  2 XX   -0.000228   0.000416  -0.000282   0.001089   0.000000
   46  H  2 YY    0.000178  -0.000397  -0.001993  -0.002884   0.000000
   47  H  2 ZZ    0.000051  -0.000019   0.002275   0.001794   0.000000
   48  H  2 XY   -0.000000  -0.000000  -0.000000   0.000000  -0.006073
   49  H  2 XZ   -0.000000  -0.000000  -0.000000   0.000000   0.004282
   50  H  2 YZ   -0.000399   0.000853  -0.002682  -0.001991   0.000000
   51  O  3  S    0.975405  -0.008338  -0.000000   0.004813   0.000000
   52  O  3  S   -0.001454   0.505594  -0.000000   0.182368   0.000000
   53  O  3  S    0.043600   0.132774  -0.000000   0.052393   0.000000
   54  O  3  S    0.000849   0.294358  -0.000000   0.328325   0.000000
   55  O  3  X   -0.000000  -0.000000  -0.000000   0.000000   0.354135
   56  O  3  Y   -0.000000   0.000000   0.284135   0.000000   0.000000
   57  O  3  Z   -0.001870  -0.044329  -0.000000   0.311886   0.000000
   58  O  3  X   -0.000000  -0.000000  -0.000000   0.000000   0.450207
   59  O  3  Y   -0.000000   0.000000   0.339423   0.000000   0.000000
   60  O  3  Z    0.001587  -0.063134  -0.000000   0.382614   0.000000
   61  O  3  X   -0.000000  -0.000000  -0.000000   0.000000   0.325857
   62  O  3  Y    0.000000   0.000000   0.157791   0.000000   0.000000
   63  O  3  Z   -0.000268  -0.017393  -0.000000   0.213754   0.000000
   64  O  3 XX   -0.000063  -0.003594  -0.000000   0.006074   0.000000
   65  O  3 YY    0.000052   0.002651  -0.000000  -0.000196   0.000000
   66  O  3 ZZ    0.000011   0.000943  -0.000000  -0.005879   0.000000
   67  O  3 XY   -0.000000  -0.000000  -0.000000   0.000000   0.000000
   68  O  3 XZ   -0.000000  -0.000000  -0.000000   0.000000  -0.005773
   69  O  3 YZ   -0.000000  -0.000000  -0.012716   0.000000   0.000000
   70  O  3 XX    0.000502  -0.009031   0.000000   0.009053   0.000000
   71  O  3 YY   -0.000420   0.005459  -0.000000   0.006994   0.000000
   72  O  3 ZZ   -0.000082   0.003572  -0.000000  -0.016047   0.000000
   73  O  3 XY   -0.000000  -0.000000  -0.000000   0.000000   0.000000
   74  O  3 XZ   -0.000000  -0.000000  -0.000000   0.000000  -0.014252
   75  O  3 YZ   -0.000000  -0.000000  -0.023244   0.000000   0.000000
   76  O  3 XXX  -0.000000  -0.000000  -0.000000   0.000000  -0.003625
   77  O  3 YYY  -0.000000  -0.000000   0.002250   0.000000   0.000000
   78  O  3 ZZZ   0.000021   0.000919  -0.000000   0.000624   0.000000
   79  O  3 XXY  -0.000000  -0.000000  -0.002877   0.000000   0.000000
   80  O  3 XXZ  -0.000010   0.001685  -0.000000  -0.002816   0.000000
   81  O  3 YYX  -0.000000  -0.000000  -0.000000   0.000000   0.003374
   82  O  3 YYZ  -0.000018  -0.002919  -0.000000   0.001979   0.000000
   83  O  3 ZZX  -0.000000  -0.000000  -0.000000   0.000000   0.001489
   84  O  3 ZZY  -0.000000  -0.000000  -0.000141   0.000000   0.000000
   85  O  3 XYZ  -0.000000  -0.000000  -0.000000   0.000000   0.000000
   86  O  3  S    0.000277   0.034838  -0.000000   0.083105   0.000000
   87  O  3  X   -0.000000  -0.000000  -0.000000   0.000000   0.033322
   88  O  3  Y   -0.000000   0.000000   0.008342  -0.000000   0.000000
   89  O  3  Z   -0.000169  -0.002819  -0.000000   0.013453   0.000000
   90  O  3 XX   -0.000147   0.002299   0.000000  -0.005910   0.000000
   91  O  3 YY    0.000064  -0.003089  -0.000000   0.010079   0.000000
   92  O  3 ZZ    0.000083   0.000791   0.000000  -0.004169   0.000000
   93  O  3 XY   -0.000000  -0.000000  -0.000000   0.000000   0.000000
   94  O  3 XZ   -0.000000  -0.000000  -0.000000   0.000000  -0.005414
   95  O  3 YZ   -0.000000  -0.000000  -0.000413  -0.000000   0.000000
   96  O  3 XXX  -0.000000  -0.000000  -0.000000   0.000000  -0.001543
   97  O  3 YYY  -0.000000  -0.000000  -0.000033   0.000000   0.000000
   98  O  3 ZZZ  -0.000087  -0.000539  -0.000000   0.001606   0.000000
   99  O  3 XXY  -0.000000  -0.000000  -0.002534  -0.000000   0.000000
  100  O  3 XXZ  -0.000082   0.000765  -0.000000  -0.000707   0.000000
  101  O  3 YYX  -0.000000  -0.000000  -0.000000   0.000000   0.001137
  102  O  3 YYZ   0.000198  -0.000042   0.000000  -0.001447   0.000000
  103  O  3 ZZX  -0.000000  -0.000000  -0.000000   0.000000   0.000933
  104  O  3 ZZY  -0.000000   0.000000   0.002579   0.000000   0.000000
  105  O  3 XYZ  -0.000000  -0.000000  -0.000000   0.000000   0.000000

                      6          7          8          9         10
                    0.0294     0.0477     0.1359     0.1588     0.1752
                     A          A          A          A          A   
    1  H  1  S   -0.001811  -0.006365   0.001029  -0.000000   0.030381
    2  H  1  S   -0.242762   0.256163  -0.244975  -0.000000  -0.497357
    3  H  1  S   -0.952071   1.372174  -3.226699  -0.000000  -1.191265
    4  H  1  X   -0.000000   0.000000   0.000000   0.000476   0.000000
    5  H  1  Y    0.002036   0.000549  -0.000557  -0.000000  -0.012360
    6  H  1  Z    0.000351  -0.001255  -0.000104  -0.000000  -0.007796
    7  H  1  X   -0.000000   0.000000   0.000000  -0.039399   0.000000
    8  H  1  Y   -0.079228   0.066075  -0.210212  -0.000000  -0.187874
    9  H  1  Z   -0.060413   0.070381  -0.135105  -0.000000  -0.184671
   10  H  1 XX    0.002569  -0.003069   0.008101  -0.000000   0.004788
   11  H  1 YY   -0.001490   0.003122  -0.006403  -0.000000  -0.002198
   12  H  1 ZZ   -0.001079  -0.000053  -0.001697  -0.000000  -0.002591
   13  H  1 XY   -0.000000   0.000000   0.000000   0.002027   0.000000
   14  H  1 XZ   -0.000000   0.000000   0.000000   0.002439   0.000000
   15  H  1 YZ   -0.004863   0.004537  -0.010443  -0.000000  -0.014197
   16  H  1  S   -0.856845   3.419743  -0.734559  -0.000000  -0.697071
   17  H  1  X   -0.000000   0.000000   0.000000  -0.564711   0.000000
   18  H  1  Y   -0.218559   0.279041  -0.772156  -0.000000  -0.783897
   19  H  1  Z   -0.198211   0.323750  -0.469514  -0.000000  -0.897675
   20  H  1 XX    0.018900  -0.010219   0.042972  -0.000000   0.068027
   21  H  1 YY   -0.015866  -0.004845  -0.058695  -0.000000  -0.043668
   22  H  1 ZZ   -0.003033   0.015064   0.015724  -0.000000  -0.024359
   23  H  1 XY   -0.000000   0.000000   0.000000  -0.068581   0.000000
   24  H  1 XZ   -0.000000   0.000000   0.000000  -0.043209   0.000000
   25  H  1 YZ   -0.027455   0.032680  -0.085820  -0.000000  -0.108895
   26  H  2  S   -0.001811   0.006365   0.001029  -0.000000   0.030381
   27  H  2  S   -0.242762  -0.256163  -0.244975  -0.000000  -0.497357
   28  H  2  S   -0.952071  -1.372174  -3.226699  -0.000000  -1.191265
   29  H  2  X   -0.000000   0.000000   0.000000   0.000476   0.000000
   30  H  2  Y   -0.002036   0.000549   0.000557  -0.000000   0.012360
   31  H  2  Z    0.000351   0.001255  -0.000104  -0.000000  -0.007796
   32  H  2  X   -0.000000   0.000000   0.000000  -0.039399   0.000000
   33  H  2  Y    0.079228   0.066075   0.210212  -0.000000   0.187874
   34  H  2  Z   -0.060413  -0.070381  -0.135105  -0.000000  -0.184671
   35  H  2 XX    0.002569   0.003069   0.008101  -0.000000   0.004788
   36  H  2 YY   -0.001490  -0.003122  -0.006403  -0.000000  -0.002198
   37  H  2 ZZ   -0.001079   0.000053  -0.001697  -0.000000  -0.002591
   38  H  2 XY   -0.000000   0.000000   0.000000  -0.002027   0.000000
   39  H  2 XZ   -0.000000   0.000000   0.000000   0.002439   0.000000
   40  H  2 YZ    0.004863   0.004537   0.010443  -0.000000   0.014197
   41  H  2  S   -0.856845  -3.419743  -0.734559  -0.000000  -0.697071
   42  H  2  X   -0.000000   0.000000   0.000000  -0.564711   0.000000
   43  H  2  Y    0.218559   0.279041   0.772156  -0.000000   0.783897
   44  H  2  Z   -0.198211  -0.323750  -0.469514  -0.000000  -0.897675
   45  H  2 XX    0.018900   0.010219   0.042972  -0.000000   0.068027
   46  H  2 YY   -0.015866   0.004845  -0.058695  -0.000000  -0.043668
   47  H  2 ZZ   -0.003033  -0.015064   0.015724  -0.000000  -0.024359
   48  H  2 XY   -0.000000   0.000000   0.000000   0.068581   0.000000
   49  H  2 XZ   -0.000000   0.000000   0.000000  -0.043209   0.000000
   50  H  2 YZ    0.027455   0.032680   0.085820  -0.000000   0.108895
   51  O  3  S   -0.000452   0.000000  -0.008701  -0.000000  -0.004572
   52  O  3  S    0.058744   0.000000  -0.060485  -0.000000  -0.142503
   53  O  3  S    0.012505   0.000000  -0.018915  -0.000000  -0.056172
   54  O  3  S    0.801387   0.000000   1.576778  -0.000000   1.639637
   55  O  3  X   -0.000000   0.000000   0.000000  -0.087614   0.000000
   56  O  3  Y    0.000000   0.029068   0.000000  -0.000000  -0.000000
   57  O  3  Z   -0.029065   0.000000   0.090457  -0.000000   0.018009
   58  O  3  X   -0.000000   0.000000   0.000000  -0.080487   0.000000
   59  O  3  Y    0.000000   0.074107   0.000000  -0.000000   0.000000
   60  O  3  Z   -0.072307   0.000000   0.035575  -0.000000  -0.059605
   61  O  3  X   -0.000000   0.000000   0.000000   0.041569   0.000000
   62  O  3  Y    0.000000   0.535181   0.000000  -0.000000   0.000000
   63  O  3  Z   -0.349381   0.000000  -0.421882  -0.000000  -0.564543
   64  O  3 XX    0.000848   0.000000  -0.000570  -0.000000   0.003361
   65  O  3 YY   -0.000832  -0.000000   0.000744  -0.000000  -0.001138
   66  O  3 ZZ   -0.000016   0.000000  -0.000174  -0.000000  -0.002223
   67  O  3 XY   -0.000000   0.000000   0.000000  -0.000000   0.000000
   68  O  3 XZ   -0.000000   0.000000   0.000000  -0.001907   0.000000
   69  O  3 YZ    0.000000   0.000043   0.000000  -0.000000   0.000000
   70  O  3 XX   -0.023363   0.000000  -0.012452  -0.000000  -0.071442
   71  O  3 YY    0.016615   0.000000   0.020630  -0.000000   0.054350
   72  O  3 ZZ    0.006748  -0.000000  -0.008178  -0.000000   0.017092
   73  O  3 XY   -0.000000   0.000000   0.000000  -0.000000   0.000000
   74  O  3 XZ   -0.000000   0.000000   0.000000   0.028293   0.000000
   75  O  3 YZ   -0.000000  -0.030066  -0.000000  -0.000000  -0.000000
   76  O  3 XXX  -0.000000   0.000000   0.000000   0.004612   0.000000
   77  O  3 YYY   0.000000  -0.000367   0.000000  -0.000000   0.000000
   78  O  3 ZZZ   0.000679  -0.000000   0.001963  -0.000000   0.001350
   79  O  3 XXY  -0.000000  -0.000476   0.000000  -0.000000  -0.000000
   80  O  3 XXZ   0.000710   0.000000   0.000842  -0.000000   0.002511
   81  O  3 YYX  -0.000000   0.000000   0.000000  -0.003660   0.000000
   82  O  3 YYZ  -0.001621   0.000000  -0.003476  -0.000000  -0.004323
   83  O  3 ZZX  -0.000000   0.000000   0.000000  -0.002528   0.000000
   84  O  3 ZZY  -0.000000   0.000968  -0.000000  -0.000000   0.000000
   85  O  3 XYZ  -0.000000   0.000000   0.000000  -0.000000   0.000000
   86  O  3  S    2.385258   0.000000   6.723761  -0.000000   4.006929
   87  O  3  X   -0.000000   0.000000   0.000000   1.822987   0.000000
   88  O  3  Y   -0.000000   1.132129  -0.000000  -0.000000   0.000000
   89  O  3  Z   -0.222103   0.000000  -2.057299  -0.000000   0.923143
   90  O  3 XX   -0.047282   0.000000  -0.095055  -0.000000  -0.024543
   91  O  3 YY    0.048655   0.000000   0.008669  -0.000000   0.146355
   92  O  3 ZZ   -0.001373  -0.000000   0.086386  -0.000000  -0.121812
   93  O  3 XY   -0.000000   0.000000   0.000000  -0.000000   0.000000
   94  O  3 XZ   -0.000000   0.000000   0.000000  -0.205089   0.000000
   95  O  3 YZ   -0.000000  -0.127384  -0.000000  -0.000000  -0.000000
   96  O  3 XXX  -0.000000   0.000000   0.000000  -0.013798   0.000000
   97  O  3 YYY  -0.000000   0.004744  -0.000000  -0.000000  -0.000000
   98  O  3 ZZZ   0.004590   0.000000  -0.004419  -0.000000   0.019996
   99  O  3 XXY  -0.000000  -0.010882  -0.000000  -0.000000  -0.000000
  100  O  3 XXZ   0.006624  -0.000000  -0.000717  -0.000000   0.008556
  101  O  3 YYX  -0.000000   0.000000   0.000000   0.009544   0.000000
  102  O  3 YYZ  -0.012782  -0.000000   0.006645  -0.000000  -0.035384
  103  O  3 ZZX  -0.000000   0.000000   0.000000   0.008968   0.000000
  104  O  3 ZZY   0.000000   0.004517   0.000000  -0.000000   0.000000
  105  O  3 XYZ  -0.000000   0.000000   0.000000   0.000000   0.000000

                     11         12         13         14         15
                    0.1831     0.2271     0.2449     0.2654     0.3000
                     A          A          A          A          A   
    1  H  1  S   -0.000329   0.040873  -0.031630  -0.000000  -0.000000
    2  H  1  S    0.908333   0.672007  -0.140462  -0.000000  -0.000000
    3  H  1  S    4.878321  -0.008525  -1.423596  -0.000000  -0.000000
    4  H  1  X    0.000000   0.000000   0.000000   0.001406   0.007168
    5  H  1  Y    0.010968  -0.000306  -0.004703  -0.000000  -0.000000
    6  H  1  Z    0.004849  -0.009126   0.005905  -0.000000  -0.000000
    7  H  1  X    0.000000   0.000000   0.000000  -0.278916  -0.337489
    8  H  1  Y    0.246725   0.000304   0.176196  -0.000000  -0.000000
    9  H  1  Z    0.257913  -0.022637  -0.279559  -0.000000  -0.000000
   10  H  1 XX   -0.011798  -0.000958  -0.004382  -0.000000  -0.000000
   11  H  1 YY    0.010066   0.002564   0.008015  -0.000000  -0.000000
   12  H  1 ZZ    0.001732  -0.001606  -0.003633  -0.000000  -0.000000
   13  H  1 XY    0.000000   0.000000   0.000000  -0.004628  -0.007793
   14  H  1 XZ    0.000000   0.000000   0.000000  -0.003260  -0.005878
   15  H  1 YZ    0.016955  -0.002549  -0.009779  -0.000000  -0.000000
   16  H  1  S    3.347778   0.071494  -0.092944  -0.000000  -0.000000
   17  H  1  X    0.000000   0.000000   0.000000  -1.791909  -1.897804
   18  H  1  Y    1.117395  -1.291073   0.882358  -0.000000  -0.000000
   19  H  1  Z    1.209377  -0.785443  -1.075563  -0.000000  -0.000000
   20  H  1 XX   -0.016318   0.158765   0.010584  -0.000000  -0.000000
   21  H  1 YY   -0.032467  -0.108986   0.246485  -0.000000  -0.000000
   22  H  1 ZZ    0.048785  -0.049779  -0.257069  -0.000000  -0.000000
   23  H  1 XY    0.000000   0.000000   0.000000  -0.248516  -0.308478
   24  H  1 XZ    0.000000   0.000000   0.000000  -0.222055  -0.193114
   25  H  1 YZ    0.095413  -0.150705  -0.025328  -0.000000  -0.000000
   26  H  2  S    0.000329  -0.040873  -0.031630  -0.000000  -0.000000
   27  H  2  S   -0.908333  -0.672007  -0.140462  -0.000000  -0.000000
   28  H  2  S   -4.878321   0.008525  -1.423596  -0.000000  -0.000000
   29  H  2  X    0.000000   0.000000   0.000000  -0.001406   0.007168
   30  H  2  Y    0.010968  -0.000306   0.004703  -0.000000  -0.000000
   31  H  2  Z   -0.004849   0.009126   0.005905  -0.000000  -0.000000
   32  H  2  X    0.000000   0.000000   0.000000   0.278916  -0.337489
   33  H  2  Y    0.246725   0.000304  -0.176196  -0.000000  -0.000000
   34  H  2  Z   -0.257913   0.022637  -0.279559  -0.000000  -0.000000
   35  H  2 XX    0.011798   0.000958  -0.004382  -0.000000  -0.000000
   36  H  2 YY   -0.010066  -0.002564   0.008015  -0.000000  -0.000000
   37  H  2 ZZ   -0.001732   0.001606  -0.003633  -0.000000  -0.000000
   38  H  2 XY    0.000000   0.000000   0.000000  -0.004628   0.007793
   39  H  2 XZ    0.000000   0.000000   0.000000   0.003260  -0.005878
   40  H  2 YZ    0.016955  -0.002549   0.009779  -0.000000  -0.000000
   41  H  2  S   -3.347778  -0.071494  -0.092944  -0.000000  -0.000000
   42  H  2  X    0.000000   0.000000   0.000000   1.791909  -1.897804
   43  H  2  Y    1.117395  -1.291073  -0.882358  -0.000000  -0.000000
   44  H  2  Z   -1.209377   0.785443  -1.075563  -0.000000  -0.000000
   45  H  2 XX    0.016318  -0.158765   0.010584  -0.000000  -0.000000
   46  H  2 YY    0.032467   0.108986   0.246485  -0.000000  -0.000000
   47  H  2 ZZ   -0.048785   0.049779  -0.257069  -0.000000  -0.000000
   48  H  2 XY    0.000000   0.000000   0.000000  -0.248516   0.308478
   49  H  2 XZ    0.000000   0.000000   0.000000   0.222055  -0.193114
   50  H  2 YZ    0.095413  -0.150705   0.025328  -0.000000  -0.000000
   51  O  3  S    0.000000  -0.000000  -0.010666  -0.000000  -0.000000
   52  O  3  S    0.000000   0.000000  -0.014523  -0.000000  -0.000000
   53  O  3  S    0.000000  -0.000000  -0.004325  -0.000000  -0.000000
   54  O  3  S   -0.000000   0.000000   0.168267  -0.000000  -0.000000
   55  O  3  X    0.000000   0.000000   0.000000  -0.000000   0.085297
   56  O  3  Y   -0.094169   0.067368   0.000000  -0.000000  -0.000000
   57  O  3  Z   -0.000000  -0.000000  -0.000190  -0.000000  -0.000000
   58  O  3  X    0.000000   0.000000   0.000000  -0.000000   0.052555
   59  O  3  Y   -0.000952   0.032033   0.000000  -0.000000  -0.000000
   60  O  3  Z    0.000000  -0.000000  -0.000669  -0.000000  -0.000000
   61  O  3  X    0.000000   0.000000   0.000000  -0.000000   1.938950
   62  O  3  Y    1.615067   0.815952   0.000000  -0.000000  -0.000000
   63  O  3  Z    0.000000  -0.000000   0.788318  -0.000000  -0.000000
   64  O  3 XX   -0.000000   0.000000   0.000444  -0.000000  -0.000000
   65  O  3 YY   -0.000000   0.000000  -0.006913  -0.000000  -0.000000
   66  O  3 ZZ    0.000000  -0.000000   0.006469  -0.000000  -0.000000
   67  O  3 XY    0.000000   0.000000   0.000000   0.005282  -0.000000
   68  O  3 XZ    0.000000   0.000000   0.000000  -0.000000   0.006387
   69  O  3 YZ    0.004084   0.003909   0.000000  -0.000000  -0.000000
   70  O  3 XX    0.000000  -0.000000   0.006178  -0.000000  -0.000000
   71  O  3 YY   -0.000000   0.000000   0.028751  -0.000000  -0.000000
   72  O  3 ZZ   -0.000000   0.000000  -0.034929  -0.000000  -0.000000
   73  O  3 XY    0.000000   0.000000   0.000000  -0.012805   0.000000
   74  O  3 XZ    0.000000   0.000000   0.000000   0.000000  -0.033262
   75  O  3 YZ   -0.089148   0.018076  -0.000000  -0.000000  -0.000000
   76  O  3 XXX   0.000000   0.000000   0.000000  -0.000000   0.010034
   77  O  3 YYY  -0.002583   0.001445   0.000000  -0.000000  -0.000000
   78  O  3 ZZZ  -0.000000   0.000000  -0.006016  -0.000000  -0.000000
   79  O  3 XXY   0.000370   0.006901  -0.000000  -0.000000  -0.000000
   80  O  3 XXZ   0.000000   0.000000   0.002248  -0.000000  -0.000000
   81  O  3 YYX   0.000000   0.000000   0.000000  -0.000000  -0.007249
   82  O  3 YYZ   0.000000  -0.000000   0.005823  -0.000000  -0.000000
   83  O  3 ZZX   0.000000   0.000000   0.000000  -0.000000  -0.006213
   84  O  3 ZZY   0.003095  -0.008839   0.000000  -0.000000  -0.000000
   85  O  3 XYZ   0.000000   0.000000   0.000000  -0.011868  -0.000000
   86  O  3  S   -0.000000   0.000000   2.668035  -0.000000  -0.000000
   87  O  3  X    0.000000   0.000000   0.000000  -0.000000   1.923532
   88  O  3  Y    3.622535   1.701858  -0.000000  -0.000000  -0.000000
   89  O  3  Z   -0.000000  -0.000000   0.580038  -0.000000  -0.000000
   90  O  3 XX    0.000000  -0.000000  -0.133038  -0.000000  -0.000000
   91  O  3 YY    0.000000  -0.000000   0.772807  -0.000000  -0.000000
   92  O  3 ZZ   -0.000000   0.000000  -0.639769  -0.000000  -0.000000
   93  O  3 XY    0.000000   0.000000   0.000000  -0.692990  -0.000000
   94  O  3 XZ    0.000000   0.000000   0.000000   0.000000  -0.569621
   95  O  3 YZ   -0.463798  -0.691914  -0.000000  -0.000000  -0.000000
   96  O  3 XXX   0.000000   0.000000   0.000000   0.000000  -0.096182
   97  O  3 YYY   0.014233  -0.011282  -0.000000  -0.000000  -0.000000
   98  O  3 ZZZ   0.000000  -0.000000   0.063873  -0.000000  -0.000000
   99  O  3 XXY  -0.034951  -0.043722  -0.000000  -0.000000  -0.000000
  100  O  3 XXZ  -0.000000   0.000000  -0.020122  -0.000000  -0.000000
  101  O  3 YYX   0.000000   0.000000   0.000000  -0.000000   0.081247
  102  O  3 YYZ   0.000000  -0.000000  -0.065572  -0.000000  -0.000000
  103  O  3 ZZX   0.000000   0.000000   0.000000   0.000000   0.047794
  104  O  3 ZZY   0.015855   0.058858   0.000000  -0.000000  -0.000000
  105  O  3 XYZ   0.000000   0.000000   0.000000   0.097299   0.000000

                     16         17         18         19         20
                    0.3101     0.3658     0.4373     0.4660     0.5992
                     A          A          A          A          A   
    1  H  1  S   -0.014181   0.018383  -0.034323   0.021205   0.109171
    2  H  1  S   -1.381685  -0.352440  -0.223493   1.188873  -2.437762
    3  H  1  S   -3.736535   4.217022  -6.563742  11.391253  -6.965989
    4  H  1  X   -0.000000   0.000000  -0.000000  -0.000000  -0.000000
    5  H  1  Y    0.002829  -0.006727   0.016140  -0.000076  -0.013742
    6  H  1  Z   -0.009791   0.003256   0.013791  -0.005149  -0.004056
    7  H  1  X   -0.000000   0.000000  -0.000000  -0.000000  -0.000000
    8  H  1  Y   -0.477498   0.223007  -0.333711   0.451723  -0.540835
    9  H  1  Z   -0.086237  -0.164832  -0.309729   0.493630  -0.394868
   10  H  1 XX    0.019073   0.006156   0.010308  -0.023303   0.016045
   11  H  1 YY   -0.021145  -0.001282  -0.003475   0.017980  -0.019434
   12  H  1 ZZ    0.002072  -0.004875  -0.006833   0.005323   0.003388
   13  H  1 XY   -0.000000   0.000000  -0.000000  -0.000000  -0.000000
   14  H  1 XZ   -0.000000   0.000000  -0.000000  -0.000000  -0.000000
   15  H  1 YZ   -0.018239   0.011464  -0.021259   0.036680  -0.024664
   16  H  1  S   -0.271394  -0.668109  -0.700756   2.063808  -0.862805
   17  H  1  X   -0.000000   0.000000  -0.000000  -0.000000  -0.000000
   18  H  1  Y   -0.036345   4.458518  -2.208133   3.532285  -1.392868
   19  H  1  Z    0.893534  -1.839332  -1.858889   2.426440  -0.100027
   20  H  1 XX   -0.042725  -0.195261   0.220762  -0.189326  -0.237234
   21  H  1 YY   -0.052746   0.515684  -0.216393   0.085330   0.046447
   22  H  1 ZZ    0.095471  -0.320422  -0.004369   0.103996   0.190787
   23  H  1 XY   -0.000000   0.000000  -0.000000  -0.000000  -0.000000
   24  H  1 XZ   -0.000000   0.000000  -0.000000  -0.000000  -0.000000
   25  H  1 YZ    0.148398  -0.149347  -0.396938   0.317667   0.304028
   26  H  2  S   -0.014181  -0.018383  -0.034323  -0.021205  -0.109171
   27  H  2  S   -1.381685   0.352440  -0.223493  -1.188873   2.437762
   28  H  2  S   -3.736535  -4.217022  -6.563742 -11.391252   6.965989
   29  H  2  X   -0.000000   0.000000  -0.000000  -0.000000  -0.000000
   30  H  2  Y   -0.002829  -0.006727  -0.016140  -0.000076  -0.013742
   31  H  2  Z   -0.009791  -0.003256   0.013791   0.005149   0.004056
   32  H  2  X   -0.000000   0.000000  -0.000000  -0.000000  -0.000000
   33  H  2  Y    0.477498   0.223007   0.333711   0.451723  -0.540835
   34  H  2  Z   -0.086237   0.164832  -0.309729  -0.493630   0.394868
   35  H  2 XX    0.019073  -0.006156   0.010308   0.023303  -0.016045
   36  H  2 YY   -0.021145   0.001282  -0.003475  -0.017980   0.019434
   37  H  2 ZZ    0.002072   0.004875  -0.006833  -0.005323  -0.003388
   38  H  2 XY   -0.000000   0.000000  -0.000000  -0.000000  -0.000000
   39  H  2 XZ   -0.000000   0.000000  -0.000000  -0.000000  -0.000000
   40  H  2 YZ    0.018239   0.011464   0.021259   0.036680  -0.024664
   41  H  2  S   -0.271394   0.668109  -0.700756  -2.063808   0.862805
   42  H  2  X   -0.000000   0.000000  -0.000000  -0.000000  -0.000000
   43  H  2  Y    0.036345   4.458518   2.208133   3.532285  -1.392868
   44  H  2  Z    0.893534   1.839332  -1.858889  -2.426440   0.100027
   45  H  2 XX   -0.042725   0.195261   0.220762   0.189326   0.237234
   46  H  2 YY   -0.052746  -0.515684  -0.216393  -0.085330  -0.046447
   47  H  2 ZZ    0.095471   0.320422  -0.004369  -0.103996  -0.190787
   48  H  2 XY   -0.000000   0.000000  -0.000000  -0.000000  -0.000000
   49  H  2 XZ   -0.000000   0.000000  -0.000000  -0.000000  -0.000000
   50  H  2 YZ   -0.148398  -0.149347   0.396938   0.317667   0.304028
   51  O  3  S   -0.020644   0.000000   0.005128   0.000000  -0.000000
   52  O  3  S   -0.081474   0.000000   0.188879  -0.000000   0.000000
   53  O  3  S   -0.047318   0.000000   0.052471  -0.000000   0.000000
   54  O  3  S    1.476256   0.000000   5.276544  -0.000000  -0.000000
   55  O  3  X   -0.000000   0.000000  -0.000000  -0.000000  -0.000000
   56  O  3  Y   -0.000000  -0.013175   0.000000   0.166412   0.071344
   57  O  3  Z   -0.084645  -0.000000  -0.104673   0.000000  -0.000000
   58  O  3  X   -0.000000   0.000000  -0.000000  -0.000000  -0.000000
   59  O  3  Y   -0.000000   0.019528   0.000000   0.492385   0.006150
   60  O  3  Z   -0.179210  -0.000000  -0.352217   0.000000   0.000000
   61  O  3  X   -0.000000   0.000000  -0.000000  -0.000000  -0.000000
   62  O  3  Y   -0.000000  -1.206710   0.000000   3.220496  -3.903024
   63  O  3  Z   -2.479838  -0.000000  -0.777978   0.000000  -0.000000
   64  O  3 XX    0.006382   0.000000   0.002704  -0.000000   0.000000
   65  O  3 YY   -0.001445  -0.000000  -0.004897  -0.000000   0.000000
   66  O  3 ZZ   -0.004936   0.000000   0.002193   0.000000  -0.000000
   67  O  3 XY   -0.000000   0.000000  -0.000000  -0.000000  -0.000000
   68  O  3 XZ   -0.000000   0.000000  -0.000000  -0.000000  -0.000000
   69  O  3 YZ   -0.000000   0.002158   0.000000   0.007632   0.012470
   70  O  3 XX   -0.075651  -0.000000  -0.064370   0.000000   0.000000
   71  O  3 YY    0.029911   0.000000   0.051838   0.000000  -0.000000
   72  O  3 ZZ    0.045740  -0.000000   0.012533  -0.000000   0.000000
   73  O  3 XY   -0.000000   0.000000  -0.000000  -0.000000  -0.000000
   74  O  3 XZ   -0.000000   0.000000  -0.000000  -0.000000  -0.000000
   75  O  3 YZ    0.000000  -0.013157  -0.000000  -0.197245   0.221145
   76  O  3 XXX  -0.000000   0.000000  -0.000000  -0.000000  -0.000000
   77  O  3 YYY   0.000000   0.007855  -0.000000  -0.001440  -0.000898
   78  O  3 ZZZ   0.005212   0.000000   0.004755  -0.000000   0.000000
   79  O  3 XXY   0.000000  -0.002442  -0.000000  -0.011606  -0.009714
   80  O  3 XXZ  -0.005531   0.000000   0.010672  -0.000000  -0.000000
   81  O  3 YYX  -0.000000   0.000000  -0.000000  -0.000000  -0.000000
   82  O  3 YYZ  -0.001461  -0.000000  -0.017052   0.000000   0.000000
   83  O  3 ZZX  -0.000000   0.000000  -0.000000  -0.000000  -0.000000
   84  O  3 ZZY  -0.000000  -0.008096   0.000000   0.013538   0.010918
   85  O  3 XYZ  -0.000000   0.000000  -0.000000  -0.000000  -0.000000
   86  O  3  S    7.147936   0.000000  10.690593  -0.000000  -0.000000
   87  O  3  X   -0.000000   0.000000  -0.000000  -0.000000  -0.000000
   88  O  3  Y   -0.000000  -3.204088   0.000000   2.960572  -2.281734
   89  O  3  Z   -2.430567  -0.000000  -0.903096   0.000000  -0.000000
   90  O  3 XX   -0.531194   0.000000   0.287564   0.000000   0.000000
   91  O  3 YY    0.078856   0.000000  -0.203428   0.000000  -0.000000
   92  O  3 ZZ    0.452338  -0.000000  -0.084136  -0.000000   0.000000
   93  O  3 XY   -0.000000   0.000000  -0.000000  -0.000000  -0.000000
   94  O  3 XZ   -0.000000   0.000000  -0.000000  -0.000000  -0.000000
   95  O  3 YZ    0.000000   0.127089  -0.000000  -0.110278   2.484433
   96  O  3 XXX  -0.000000   0.000000  -0.000000  -0.000000  -0.000000
   97  O  3 YYY  -0.000000  -0.066994  -0.000000   0.045185   0.039227
   98  O  3 ZZZ  -0.013451   0.000000  -0.012503   0.000000  -0.000000
   99  O  3 XXY   0.000000   0.022773  -0.000000  -0.018052   0.144388
  100  O  3 XXZ   0.083792  -0.000000  -0.045601  -0.000000   0.000000
  101  O  3 YYX  -0.000000   0.000000  -0.000000  -0.000000  -0.000000
  102  O  3 YYZ  -0.065745  -0.000000   0.062375  -0.000000   0.000000
  103  O  3 ZZX  -0.000000   0.000000  -0.000000  -0.000000  -0.000000
  104  O  3 ZZY   0.000000   0.067109   0.000000  -0.042571  -0.197016
  105  O  3 XYZ  -0.000000   0.000000  -0.000000  -0.000000  -0.000000

                     21         22         23         24         25
                    0.6585     0.7079     0.7226     0.7317     0.8305
                     A          A          A          A          A   
    1  H  1  S    0.058322   0.064073  -0.000000  -0.000000  -0.066904
    2  H  1  S   -0.078337  -0.687320  -0.000000  -0.000000  -2.977964
    3  H  1  S   -3.097318  -2.680311  -0.000000  -0.000000   0.291967
    4  H  1  X   -0.000000  -0.000000  -0.036192   0.033282  -0.000000
    5  H  1  Y   -0.020571   0.025515  -0.000000  -0.000000  -0.025970
    6  H  1  Z    0.033859  -0.016655  -0.000000  -0.000000  -0.022451
    7  H  1  X   -0.000000  -0.000000   0.657849  -0.474123  -0.000000
    8  H  1  Y    0.110071  -0.543797  -0.000000  -0.000000  -0.108674
    9  H  1  Z   -0.648152   0.078553  -0.000000  -0.000000  -0.520694
   10  H  1 XX   -0.002394   0.021521  -0.000000  -0.000000   0.006000
   11  H  1 YY    0.012071  -0.014778  -0.000000  -0.000000   0.026693
   12  H  1 ZZ   -0.009678  -0.006743  -0.000000  -0.000000  -0.032694
   13  H  1 XY   -0.000000  -0.000000   0.015282  -0.009018  -0.000000
   14  H  1 XZ   -0.000000  -0.000000   0.012958   0.003111  -0.000000
   15  H  1 YZ   -0.024719  -0.002253  -0.000000  -0.000000  -0.016152
   16  H  1  S   -0.135518  -0.092716  -0.000000  -0.000000  -0.083404
   17  H  1  X   -0.000000  -0.000000   1.695361  -1.455042  -0.000000
   18  H  1  Y    0.463420  -0.515951  -0.000000  -0.000000   0.079407
   19  H  1  Z   -1.155800   0.744267  -0.000000  -0.000000  -0.251095
   20  H  1 XX    0.005622  -0.160808  -0.000000  -0.000000  -0.087080
   21  H  1 YY    0.586215  -0.309685  -0.000000  -0.000000   0.010882
   22  H  1 ZZ   -0.591837   0.470493  -0.000000  -0.000000   0.076198
   23  H  1 XY   -0.000000  -0.000000   0.710047  -0.328737  -0.000000
   24  H  1 XZ   -0.000000  -0.000000   0.521404  -0.513401  -0.000000
   25  H  1 YZ   -0.111946   0.002189  -0.000000  -0.000000  -0.399680
   26  H  2  S    0.058322   0.064073  -0.000000  -0.000000  -0.066904
   27  H  2  S   -0.078337  -0.687320  -0.000000  -0.000000  -2.977964
   28  H  2  S   -3.097318  -2.680311  -0.000000  -0.000000   0.291967
   29  H  2  X   -0.000000  -0.000000   0.036192   0.033282  -0.000000
   30  H  2  Y    0.020571  -0.025515  -0.000000  -0.000000   0.025970
   31  H  2  Z    0.033859  -0.016655  -0.000000  -0.000000  -0.022451
   32  H  2  X   -0.000000  -0.000000  -0.657849  -0.474123  -0.000000
   33  H  2  Y   -0.110071   0.543797  -0.000000  -0.000000   0.108674
   34  H  2  Z   -0.648152   0.078553  -0.000000  -0.000000  -0.520694
   35  H  2 XX   -0.002394   0.021521  -0.000000  -0.000000   0.006000
   36  H  2 YY    0.012071  -0.014778  -0.000000  -0.000000   0.026693
   37  H  2 ZZ   -0.009678  -0.006743  -0.000000  -0.000000  -0.032694
   38  H  2 XY   -0.000000  -0.000000   0.015282   0.009018  -0.000000
   39  H  2 XZ   -0.000000  -0.000000  -0.012958   0.003111  -0.000000
   40  H  2 YZ    0.024719   0.002253  -0.000000  -0.000000   0.016152
   41  H  2  S   -0.135518  -0.092716  -0.000000  -0.000000  -0.083404
   42  H  2  X   -0.000000  -0.000000  -1.695361  -1.455042  -0.000000
   43  H  2  Y   -0.463420   0.515951  -0.000000  -0.000000  -0.079407
   44  H  2  Z   -1.155800   0.744267  -0.000000  -0.000000  -0.251095
   45  H  2 XX    0.005622  -0.160808  -0.000000  -0.000000  -0.087080
   46  H  2 YY    0.586215  -0.309685  -0.000000  -0.000000   0.010882
   47  H  2 ZZ   -0.591837   0.470493  -0.000000  -0.000000   0.076198
   48  H  2 XY   -0.000000  -0.000000   0.710047   0.328737  -0.000000
   49  H  2 XZ   -0.000000  -0.000000  -0.521404  -0.513401  -0.000000
   50  H  2 YZ    0.111946  -0.002189  -0.000000  -0.000000   0.399680
   51  O  3  S   -0.035153  -0.035603  -0.000000  -0.000000   0.000024
   52  O  3  S   -0.095080  -0.109459  -0.000000  -0.000000   0.089442
   53  O  3  S   -0.025390  -0.030547  -0.000000  -0.000000  -0.015112
   54  O  3  S    1.458073   1.747169  -0.000000  -0.000000   3.903539
   55  O  3  X   -0.000000  -0.000000  -0.000000   0.011377  -0.000000
   56  O  3  Y   -0.000000   0.000000  -0.000000  -0.000000   0.000000
   57  O  3  Z   -0.006603   0.027456  -0.000000  -0.000000  -0.004400
   58  O  3  X   -0.000000  -0.000000   0.000000   0.066377  -0.000000
   59  O  3  Y    0.000000  -0.000000  -0.000000  -0.000000   0.000000
   60  O  3  Z   -0.079539  -0.096622  -0.000000  -0.000000  -0.181235
   61  O  3  X   -0.000000  -0.000000   0.000000   2.075558  -0.000000
   62  O  3  Y   -0.000000  -0.000000  -0.000000  -0.000000  -0.000000
   63  O  3  Z    1.391117  -2.184994  -0.000000  -0.000000  -1.659065
   64  O  3 XX   -0.016591  -0.029072  -0.000000  -0.000000   0.007012
   65  O  3 YY    0.012827   0.009183  -0.000000  -0.000000  -0.005358
   66  O  3 ZZ    0.003764   0.019890  -0.000000  -0.000000  -0.001654
   67  O  3 XY   -0.000000  -0.000000   0.014771  -0.000000  -0.000000
   68  O  3 XZ   -0.000000  -0.000000  -0.000000  -0.027854  -0.000000
   69  O  3 YZ    0.000000  -0.000000  -0.000000  -0.000000   0.000000
   70  O  3 XX   -0.016036   0.016284  -0.000000  -0.000000  -0.099317
   71  O  3 YY    0.149722  -0.041133  -0.000000  -0.000000   0.148535
   72  O  3 ZZ   -0.133686   0.024849  -0.000000  -0.000000  -0.049219
   73  O  3 XY   -0.000000  -0.000000   0.104466  -0.000000  -0.000000
   74  O  3 XZ   -0.000000  -0.000000  -0.000000   0.006914  -0.000000
   75  O  3 YZ   -0.000000   0.000000  -0.000000  -0.000000  -0.000000
   76  O  3 XXX  -0.000000  -0.000000  -0.000000   0.016018  -0.000000
   77  O  3 YYY  -0.000000   0.000000  -0.000000  -0.000000   0.000000
   78  O  3 ZZZ  -0.008402   0.001692  -0.000000  -0.000000  -0.020053
   79  O  3 XXY  -0.000000   0.000000  -0.000000  -0.000000  -0.000000
   80  O  3 XXZ   0.007404  -0.003394  -0.000000  -0.000000   0.000423
   81  O  3 YYX  -0.000000  -0.000000  -0.000000  -0.022418  -0.000000
   82  O  3 YYZ   0.003868   0.001124  -0.000000  -0.000000   0.026481
   83  O  3 ZZX  -0.000000  -0.000000   0.000000   0.000927  -0.000000
   84  O  3 ZZY   0.000000  -0.000000  -0.000000  -0.000000  -0.000000
   85  O  3 XYZ  -0.000000  -0.000000   0.023461  -0.000000  -0.000000
   86  O  3  S    4.746322   4.200129  -0.000000  -0.000000   0.179569
   87  O  3  X   -0.000000  -0.000000   0.000000   1.463744  -0.000000
   88  O  3  Y   -0.000000   0.000000  -0.000000  -0.000000  -0.000000
   89  O  3  Z   -0.301022  -1.815600  -0.000000  -0.000000   0.435061
   90  O  3 XX   -0.547317  -0.943648  -0.000000  -0.000000  -0.690779
   91  O  3 YY    1.888143  -0.497281  -0.000000  -0.000000   1.401823
   92  O  3 ZZ   -1.340827   1.440929  -0.000000  -0.000000  -0.711044
   93  O  3 XY   -0.000000  -0.000000   2.063268  -0.000000  -0.000000
   94  O  3 XZ   -0.000000  -0.000000  -0.000000  -1.495564  -0.000000
   95  O  3 YZ    0.000000   0.000000  -0.000000  -0.000000  -0.000000
   96  O  3 XXX  -0.000000  -0.000000  -0.000000  -0.141029  -0.000000
   97  O  3 YYY  -0.000000  -0.000000  -0.000000  -0.000000  -0.000000
   98  O  3 ZZZ   0.133734  -0.043741  -0.000000  -0.000000   0.229227
   99  O  3 XXY   0.000000   0.000000  -0.000000  -0.000000  -0.000000
  100  O  3 XXZ  -0.044224   0.061074  -0.000000  -0.000000   0.038224
  101  O  3 YYX  -0.000000  -0.000000   0.000000   0.156479  -0.000000
  102  O  3 YYZ  -0.135199  -0.002389  -0.000000  -0.000000  -0.345765
  103  O  3 ZZX  -0.000000  -0.000000  -0.000000   0.032732  -0.000000
  104  O  3 ZZY  -0.000000   0.000000  -0.000000  -0.000000   0.000000
  105  O  3 XYZ  -0.000000  -0.000000  -0.253812   0.000000  -0.000000

                     26         27         28         29         30
                    0.8463     0.8922     0.9125     0.9183     0.9224
                     A          A          A          A          A   
    1  H  1  S    0.000000   0.051347  -0.002164   0.000000  -0.000000
    2  H  1  S    0.000000  -5.020993   2.522110   0.000000  -0.000000
    3  H  1  S    0.000000  -4.851132   0.657384   0.000000  -0.000000
    4  H  1  X    0.031614   0.000000  -0.000000   0.000273   0.001729
    5  H  1  Y    0.000000  -0.031946   0.022091   0.000000  -0.000000
    6  H  1  Z    0.000000  -0.050249  -0.001207   0.000000  -0.000000
    7  H  1  X   -0.618714   0.000000  -0.000000  -0.311671   0.044172
    8  H  1  Y    0.000000  -1.673329   0.029859   0.000000  -0.000000
    9  H  1  Z    0.000000  -0.712773   0.148394   0.000000  -0.000000
   10  H  1 XX    0.000000   0.046425   0.022447   0.000000  -0.000000
   11  H  1 YY    0.000000  -0.055180   0.001339   0.000000  -0.000000
   12  H  1 ZZ    0.000000   0.008755  -0.023786   0.000000  -0.000000
   13  H  1 XY   -0.001333   0.000000  -0.000000  -0.025900   0.002028
   14  H  1 XZ   -0.021321   0.000000  -0.000000  -0.004243  -0.030328
   15  H  1 YZ    0.000000  -0.084774  -0.004149   0.000000  -0.000000
   16  H  1  S    0.000000  -0.339160   0.465827   0.000000  -0.000000
   17  H  1  X   -1.235300   0.000000  -0.000000  -0.753551   0.537922
   18  H  1  Y    0.000000  -0.749254  -0.383089   0.000000  -0.000000
   19  H  1  Z    0.000000  -0.041117   0.701028   0.000000  -0.000000
   20  H  1 XX    0.000000   0.271128  -0.481222   0.000000  -0.000000
   21  H  1 YY    0.000000  -0.323943  -0.233626   0.000000  -0.000000
   22  H  1 ZZ    0.000000   0.052815   0.714848   0.000000  -0.000000
   23  H  1 XY   -1.138753   0.000000  -0.000000  -0.136544   0.449635
   24  H  1 XZ   -0.158901   0.000000  -0.000000  -0.909855   0.939967
   25  H  1 YZ    0.000000   0.325508   0.225591   0.000000  -0.000000
   26  H  2  S    0.000000   0.051347   0.002164   0.000000  -0.000000
   27  H  2  S    0.000000  -5.020993  -2.522111   0.000000  -0.000000
   28  H  2  S    0.000000  -4.851132  -0.657384   0.000000  -0.000000
   29  H  2  X    0.031614   0.000000  -0.000000   0.000273  -0.001729
   30  H  2  Y    0.000000   0.031946   0.022091   0.000000  -0.000000
   31  H  2  Z    0.000000  -0.050249   0.001207   0.000000  -0.000000
   32  H  2  X   -0.618714   0.000000  -0.000000  -0.311671  -0.044172
   33  H  2  Y    0.000000   1.673329   0.029859   0.000000  -0.000000
   34  H  2  Z    0.000000  -0.712773  -0.148394   0.000000  -0.000000
   35  H  2 XX    0.000000   0.046425  -0.022447   0.000000  -0.000000
   36  H  2 YY    0.000000  -0.055180  -0.001339   0.000000  -0.000000
   37  H  2 ZZ    0.000000   0.008755   0.023786   0.000000  -0.000000
   38  H  2 XY    0.001333   0.000000  -0.000000   0.025900   0.002028
   39  H  2 XZ   -0.021321   0.000000  -0.000000  -0.004243   0.030328
   40  H  2 YZ    0.000000   0.084774  -0.004149   0.000000  -0.000000
   41  H  2  S    0.000000  -0.339160  -0.465827   0.000000  -0.000000
   42  H  2  X   -1.235300   0.000000  -0.000000  -0.753551  -0.537922
   43  H  2  Y    0.000000   0.749254  -0.383089   0.000000  -0.000000
   44  H  2  Z    0.000000  -0.041117  -0.701028   0.000000  -0.000000
   45  H  2 XX    0.000000   0.271128   0.481222   0.000000  -0.000000
   46  H  2 YY    0.000000  -0.323943   0.233626   0.000000  -0.000000
   47  H  2 ZZ    0.000000   0.052815  -0.714848   0.000000  -0.000000
   48  H  2 XY    1.138753   0.000000  -0.000000   0.136544   0.449635
   49  H  2 XZ   -0.158901   0.000000  -0.000000  -0.909855  -0.939967
   50  H  2 YZ    0.000000  -0.325508   0.225591   0.000000  -0.000000
   51  O  3  S    0.000000  -0.054105  -0.000000   0.000000  -0.000000
   52  O  3  S    0.000000  -0.001393   0.000000   0.000000  -0.000000
   53  O  3  S    0.000000  -0.083306  -0.000000   0.000000  -0.000000
   54  O  3  S    0.000000   9.164560   0.000000   0.000000  -0.000000
   55  O  3  X   -0.113984   0.000000  -0.000000  -0.159296   0.000000
   56  O  3  Y    0.000000   0.000000   0.037135   0.000000  -0.000000
   57  O  3  Z    0.000000   0.236396   0.000000   0.000000  -0.000000
   58  O  3  X   -0.214679   0.000000  -0.000000  -0.398333   0.000000
   59  O  3  Y    0.000000  -0.000000   0.191395   0.000000  -0.000000
   60  O  3  Z    0.000000  -0.073175  -0.000000   0.000000  -0.000000
   61  O  3  X    3.450918   0.000000  -0.000000   2.669375  -0.000000
   62  O  3  Y    0.000000  -0.000000   3.089764   0.000000  -0.000000
   63  O  3  Z    0.000000  -6.771832  -0.000000   0.000000  -0.000000
   64  O  3 XX    0.000000   0.018036   0.000000   0.000000  -0.000000
   65  O  3 YY    0.000000  -0.000752  -0.000000   0.000000  -0.000000
   66  O  3 ZZ    0.000000  -0.017284  -0.000000   0.000000  -0.000000
   67  O  3 XY    0.000000   0.000000  -0.000000  -0.000000  -0.028785
   68  O  3 XZ    0.014252   0.000000  -0.000000   0.029026  -0.000000
   69  O  3 YZ    0.000000   0.000000  -0.005365   0.000000  -0.000000
   70  O  3 XX    0.000000  -0.377656  -0.000000   0.000000  -0.000000
   71  O  3 YY    0.000000   0.237782   0.000000   0.000000  -0.000000
   72  O  3 ZZ    0.000000   0.139874   0.000000   0.000000  -0.000000
   73  O  3 XY   -0.000000   0.000000  -0.000000   0.000000   0.141155
   74  O  3 XZ   -0.132673   0.000000  -0.000000  -0.165569   0.000000
   75  O  3 YZ    0.000000   0.000000  -0.019798   0.000000  -0.000000
   76  O  3 XXX   0.018487   0.000000  -0.000000   0.006588  -0.000000
   77  O  3 YYY   0.000000   0.000000  -0.016186   0.000000  -0.000000
   78  O  3 ZZZ   0.000000   0.026209   0.000000   0.000000  -0.000000
   79  O  3 XXY   0.000000  -0.000000   0.028996   0.000000  -0.000000
   80  O  3 XXZ   0.000000  -0.011665  -0.000000   0.000000  -0.000000
   81  O  3 YYX   0.006308   0.000000  -0.000000  -0.030353   0.000000
   82  O  3 YYZ   0.000000  -0.023498  -0.000000   0.000000  -0.000000
   83  O  3 ZZX  -0.031111   0.000000  -0.000000   0.021515  -0.000000
   84  O  3 ZZY   0.000000  -0.000000  -0.007280   0.000000  -0.000000
   85  O  3 XYZ  -0.000000   0.000000  -0.000000   0.000000   0.000793
   86  O  3  S    0.000000   8.242804   0.000000   0.000000  -0.000000
   87  O  3  X    0.688048   0.000000  -0.000000   0.179352   0.000000
   88  O  3  Y    0.000000  -0.000000   0.939989   0.000000  -0.000000
   89  O  3  Z    0.000000  -1.143968  -0.000000   0.000000  -0.000000
   90  O  3 XX    0.000000  -1.801801  -0.000000   0.000000  -0.000000
   91  O  3 YY    0.000000   0.784917   0.000000   0.000000  -0.000000
   92  O  3 ZZ    0.000000   1.016884   0.000000   0.000000  -0.000000
   93  O  3 XY   -0.000000   0.000000  -0.000000   0.000000   0.133189
   94  O  3 XZ   -1.400646   0.000000  -0.000000   0.536690  -0.000000
   95  O  3 YZ    0.000000   0.000000  -1.522548   0.000000  -0.000000
   96  O  3 XXX  -0.174741   0.000000  -0.000000  -0.100544   0.000000
   97  O  3 YYY   0.000000  -0.000000   0.076596   0.000000  -0.000000
   98  O  3 ZZZ   0.000000  -0.018721  -0.000000   0.000000  -0.000000
   99  O  3 XXY   0.000000   0.000000  -0.185032   0.000000  -0.000000
  100  O  3 XXZ   0.000000   0.258124   0.000000   0.000000  -0.000000
  101  O  3 YYX   0.045207   0.000000  -0.000000   0.220415  -0.000000
  102  O  3 YYZ   0.000000  -0.233007  -0.000000   0.000000  -0.000000
  103  O  3 ZZX   0.189233   0.000000  -0.000000  -0.085520   0.000000
  104  O  3 ZZY   0.000000   0.000000   0.082267   0.000000  -0.000000
  105  O  3 XYZ   0.000000   0.000000  -0.000000  -0.000000  -0.010133

                     31         32         33         34         35
                    0.9308     0.9614     1.0208     1.0431     1.0825
                     A          A          A          A          A   
    1  H  1  S   -0.037107   0.021436   0.101236  -0.129062   0.000000
    2  H  1  S    1.645669   1.391398   1.298759  -1.833427   0.000000
    3  H  1  S    1.194447  -2.565589  -5.222211   7.840327   0.000000
    4  H  1  X    0.000000   0.000000   0.000000  -0.000000  -0.020654
    5  H  1  Y    0.033722   0.009971   0.025202  -0.024805   0.000000
    6  H  1  Z   -0.028876   0.010765   0.030820   0.003838   0.000000
    7  H  1  X    0.000000   0.000000   0.000000  -0.000000   0.464373
    8  H  1  Y   -0.159291  -0.133026  -0.475280   0.771039   0.000000
    9  H  1  Z    0.866835  -0.137437  -0.446205   0.651587   0.000000
   10  H  1 XX   -0.033162   0.026160  -0.003175  -0.027451   0.000000
   11  H  1 YY    0.007193  -0.004359  -0.000561   0.015624   0.000000
   12  H  1 ZZ    0.025969  -0.021802   0.003736   0.011827   0.000000
   13  H  1 XY    0.000000   0.000000   0.000000  -0.000000   0.045000
   14  H  1 XZ    0.000000   0.000000   0.000000  -0.000000   0.037698
   15  H  1 YZ    0.007456  -0.002327  -0.006172   0.051672   0.000000
   16  H  1  S    0.665392  -0.136857  -0.329645   0.874208   0.000000
   17  H  1  X    0.000000   0.000000   0.000000  -0.000000  -0.094473
   18  H  1  Y   -2.258718  -0.719632  -2.068729   3.243741   0.000000
   19  H  1  Z    2.372912  -0.170504  -1.912479   1.749448   0.000000
   20  H  1 XX    0.573503  -0.691975   0.782077  -0.971558   0.000000
   21  H  1 YY   -1.583760  -0.123869  -0.503974   0.856656   0.000000
   22  H  1 ZZ    1.010258   0.815844  -0.278103   0.114902   0.000000
   23  H  1 XY    0.000000   0.000000   0.000000  -0.000000  -0.348623
   24  H  1 XZ    0.000000   0.000000   0.000000  -0.000000  -0.578559
   25  H  1 YZ    0.502317  -0.210430  -1.197204   1.131185   0.000000
   26  H  2  S    0.037107   0.021436   0.101236   0.129062   0.000000
   27  H  2  S   -1.645669   1.391398   1.298759   1.833427   0.000000
   28  H  2  S   -1.194447  -2.565589  -5.222211  -7.840327   0.000000
   29  H  2  X    0.000000   0.000000   0.000000  -0.000000  -0.020654
   30  H  2  Y    0.033722  -0.009971  -0.025202  -0.024805   0.000000
   31  H  2  Z    0.028876   0.010765   0.030820  -0.003838   0.000000
   32  H  2  X    0.000000   0.000000   0.000000  -0.000000   0.464373
   33  H  2  Y   -0.159291   0.133026   0.475280   0.771039   0.000000
   34  H  2  Z   -0.866835  -0.137437  -0.446205  -0.651587   0.000000
   35  H  2 XX    0.033162   0.026160  -0.003175   0.027451   0.000000
   36  H  2 YY   -0.007193  -0.004359  -0.000561  -0.015624   0.000000
   37  H  2 ZZ   -0.025969  -0.021802   0.003736  -0.011827   0.000000
   38  H  2 XY    0.000000   0.000000   0.000000  -0.000000  -0.045000
   39  H  2 XZ    0.000000   0.000000   0.000000  -0.000000   0.037698
   40  H  2 YZ    0.007456   0.002327   0.006172   0.051672   0.000000
   41  H  2  S   -0.665392  -0.136857  -0.329645  -0.874208   0.000000
   42  H  2  X    0.000000   0.000000   0.000000  -0.000000  -0.094473
   43  H  2  Y   -2.258718   0.719632   2.068729   3.243741   0.000000
   44  H  2  Z   -2.372912  -0.170504  -1.912480  -1.749448   0.000000
   45  H  2 XX   -0.573503  -0.691975   0.782077   0.971558   0.000000
   46  H  2 YY    1.583760  -0.123869  -0.503974  -0.856656   0.000000
   47  H  2 ZZ   -1.010258   0.815844  -0.278103  -0.114902   0.000000
   48  H  2 XY    0.000000   0.000000   0.000000  -0.000000   0.348623
   49  H  2 XZ    0.000000   0.000000   0.000000  -0.000000  -0.578559
   50  H  2 YZ    0.502317   0.210430   1.197204   1.131185   0.000000
   51  O  3  S   -0.000000   0.010733   0.058159  -0.000000   0.000000
   52  O  3  S    0.000000  -0.018480  -0.109855   0.000000   0.000000
   53  O  3  S   -0.000000  -0.001710  -0.033535   0.000000   0.000000
   54  O  3  S    0.000000   0.067058   6.018630  -0.000000   0.000000
   55  O  3  X    0.000000   0.000000   0.000000  -0.000000   0.170927
   56  O  3  Y   -0.102482  -0.000000  -0.000000  -0.252900   0.000000
   57  O  3  Z    0.000000   0.091116   0.128261   0.000000   0.000000
   58  O  3  X    0.000000   0.000000   0.000000  -0.000000   0.600855
   59  O  3  Y   -0.093310  -0.000000   0.000000   0.169776   0.000000
   60  O  3  Z    0.000000   0.164242  -0.080673   0.000000   0.000000
   61  O  3  X    0.000000   0.000000   0.000000  -0.000000  -0.593465
   62  O  3  Y    5.556764   0.000000   0.000000  -1.022618   0.000000
   63  O  3  Z   -0.000000  -0.478803   1.038456  -0.000000   0.000000
   64  O  3 XX    0.000000   0.014614   0.001610   0.000000   0.000000
   65  O  3 YY    0.000000   0.008986  -0.002151  -0.000000   0.000000
   66  O  3 ZZ   -0.000000  -0.023600   0.000541  -0.000000   0.000000
   67  O  3 XY    0.000000   0.000000   0.000000  -0.000000   0.000000
   68  O  3 XZ    0.000000   0.000000   0.000000  -0.000000   0.008112
   69  O  3 YZ    0.004311   0.000000   0.000000  -0.007284   0.000000
   70  O  3 XX   -0.000000  -0.088569  -0.047568  -0.000000   0.000000
   71  O  3 YY    0.000000  -0.013540   0.076851   0.000000   0.000000
   72  O  3 ZZ    0.000000   0.102108  -0.029283   0.000000   0.000000
   73  O  3 XY    0.000000   0.000000   0.000000  -0.000000  -0.000000
   74  O  3 XZ    0.000000   0.000000   0.000000  -0.000000  -0.005053
   75  O  3 YZ   -0.065332  -0.000000  -0.000000  -0.214921   0.000000
   76  O  3 XXX   0.000000   0.000000   0.000000  -0.000000   0.000677
   77  O  3 YYY  -0.014583  -0.000000   0.000000  -0.005564   0.000000
   78  O  3 ZZZ   0.000000  -0.016853   0.005068  -0.000000   0.000000
   79  O  3 XXY  -0.001598  -0.000000  -0.000000  -0.021257   0.000000
   80  O  3 XXZ  -0.000000   0.022646   0.004030  -0.000000   0.000000
   81  O  3 YYX   0.000000   0.000000   0.000000  -0.000000  -0.007220
   82  O  3 YYZ  -0.000000  -0.000035  -0.010830   0.000000   0.000000
   83  O  3 ZZX   0.000000   0.000000   0.000000  -0.000000   0.006311
   84  O  3 ZZY   0.021164   0.000000   0.000000   0.028721   0.000000
   85  O  3 XYZ   0.000000   0.000000   0.000000  -0.000000   0.000000
   86  O  3  S    0.000000   3.548550   6.020431   0.000000   0.000000
   87  O  3  X    0.000000   0.000000   0.000000  -0.000000   0.220317
   88  O  3  Y    2.784603   0.000000   0.000000   0.731774   0.000000
   89  O  3  Z   -0.000000  -0.558986  -0.160280  -0.000000   0.000000
   90  O  3 XX   -0.000000   1.661993   0.866973  -0.000000   0.000000
   91  O  3 YY    0.000000  -0.789992  -0.647606   0.000000   0.000000
   92  O  3 ZZ    0.000000  -0.872001  -0.219367   0.000000   0.000000
   93  O  3 XY    0.000000   0.000000   0.000000  -0.000000  -0.000000
   94  O  3 XZ    0.000000   0.000000   0.000000  -0.000000   0.832376
   95  O  3 YZ   -0.701187  -0.000000  -0.000000   2.183139   0.000000
   96  O  3 XXX   0.000000   0.000000   0.000000  -0.000000   0.085056
   97  O  3 YYY   0.218811   0.000000  -0.000000   0.041930   0.000000
   98  O  3 ZZZ  -0.000000   0.082663  -0.060686   0.000000   0.000000
   99  O  3 XXY  -0.072893  -0.000000  -0.000000   0.117697   0.000000
  100  O  3 XXZ   0.000000  -0.131702  -0.079469   0.000000   0.000000
  101  O  3 YYX   0.000000   0.000000   0.000000  -0.000000  -0.040694
  102  O  3 YYZ  -0.000000   0.020798   0.160887  -0.000000   0.000000
  103  O  3 ZZX   0.000000   0.000000   0.000000  -0.000000  -0.073421
  104  O  3 ZZY  -0.220672  -0.000000   0.000000  -0.173952   0.000000
  105  O  3 XYZ   0.000000   0.000000   0.000000  -0.000000   0.000000

                     36         37         38         39         40
                    1.1084     1.1761     1.1818     1.2610     1.5100
                     A          A          A          A          A   
    1  H  1  S   -0.000065   0.000000  -0.028754   0.076036  -0.000000
    2  H  1  S   -2.203845   0.000000  -1.881120   9.260615  -0.000000
    3  H  1  S    2.184176   0.000000  -0.696185  10.908653  -0.000000
    4  H  1  X   -0.000000  -0.014650  -0.000000  -0.000000  -0.061241
    5  H  1  Y   -0.022365   0.000000  -0.008642   0.094640  -0.000000
    6  H  1  Z   -0.002813   0.000000  -0.027012   0.049042  -0.000000
    7  H  1  X   -0.000000   0.130312  -0.000000  -0.000000   2.315519
    8  H  1  Y   -0.383039   0.000000  -0.588623   1.805124  -0.000000
    9  H  1  Z    0.406917   0.000000  -0.439415   1.259017  -0.000000
   10  H  1 XX    0.013239   0.000000   0.044673  -0.071740  -0.000000
   11  H  1 YY   -0.030854   0.000000  -0.051780   0.075556  -0.000000
   12  H  1 ZZ    0.017616   0.000000   0.007107  -0.003816  -0.000000
   13  H  1 XY   -0.000000   0.042058  -0.000000  -0.000000   0.051820
   14  H  1 XZ   -0.000000  -0.037582  -0.000000  -0.000000   0.040887
   15  H  1 YZ    0.032542   0.000000  -0.017748   0.122963  -0.000000
   16  H  1  S   -0.031931   0.000000  -0.015741   0.870130  -0.000000
   17  H  1  X   -0.000000  -0.353211  -0.000000  -0.000000   1.227311
   18  H  1  Y    0.766637   0.000000   0.516282   2.644213  -0.000000
   19  H  1  Z    0.108060   0.000000  -0.285054   0.856534  -0.000000
   20  H  1 XX   -0.716780   0.000000  -0.502786   0.366158  -0.000000
   21  H  1 YY   -0.264935   0.000000   1.261281   0.175136  -0.000000
   22  H  1 ZZ    0.981714   0.000000  -0.758495  -0.541294  -0.000000
   23  H  1 XY   -0.000000  -1.333408  -0.000000  -0.000000   0.860935
   24  H  1 XZ   -0.000000   0.713229  -0.000000  -0.000000   0.990228
   25  H  1 YZ   -0.932893   0.000000  -0.356898  -0.522336  -0.000000
   26  H  2  S    0.000065   0.000000  -0.028754  -0.076036  -0.000000
   27  H  2  S    2.203845   0.000000  -1.881120  -9.260615  -0.000000
   28  H  2  S   -2.184176   0.000000  -0.696185 -10.908653  -0.000000
   29  H  2  X   -0.000000   0.014650  -0.000000  -0.000000   0.061241
   30  H  2  Y   -0.022365   0.000000   0.008642   0.094640  -0.000000
   31  H  2  Z    0.002813   0.000000  -0.027012  -0.049042  -0.000000
   32  H  2  X   -0.000000  -0.130312  -0.000000  -0.000000  -2.315519
   33  H  2  Y   -0.383039   0.000000   0.588623   1.805124  -0.000000
   34  H  2  Z   -0.406917   0.000000  -0.439415  -1.259017  -0.000000
   35  H  2 XX   -0.013239   0.000000   0.044673   0.071740  -0.000000
   36  H  2 YY    0.030854   0.000000  -0.051780  -0.075556  -0.000000
   37  H  2 ZZ   -0.017616   0.000000   0.007107   0.003816  -0.000000
   38  H  2 XY   -0.000000   0.042058  -0.000000  -0.000000   0.051820
   39  H  2 XZ   -0.000000   0.037582  -0.000000  -0.000000  -0.040887
   40  H  2 YZ    0.032542   0.000000   0.017748   0.122963  -0.000000
   41  H  2  S    0.031931   0.000000  -0.015741  -0.870130  -0.000000
   42  H  2  X   -0.000000   0.353211  -0.000000  -0.000000  -1.227311
   43  H  2  Y    0.766637   0.000000  -0.516282   2.644213  -0.000000
   44  H  2  Z   -0.108060   0.000000  -0.285054  -0.856534  -0.000000
   45  H  2 XX    0.716780   0.000000  -0.502786  -0.366158  -0.000000
   46  H  2 YY    0.264935   0.000000   1.261281  -0.175136  -0.000000
   47  H  2 ZZ   -0.981714   0.000000  -0.758495   0.541294  -0.000000
   48  H  2 XY   -0.000000  -1.333408  -0.000000  -0.000000   0.860935
   49  H  2 XZ   -0.000000  -0.713229  -0.000000  -0.000000  -0.990228
   50  H  2 YZ   -0.932893   0.000000   0.356898  -0.522336  -0.000000
   51  O  3  S    0.000000   0.000000   0.013240  -0.000000  -0.000000
   52  O  3  S   -0.000000   0.000000   0.082515   0.000000  -0.000000
   53  O  3  S   -0.000000   0.000000  -0.018542  -0.000000  -0.000000
   54  O  3  S    0.000000   0.000000   2.653222  -0.000000  -0.000000
   55  O  3  X   -0.000000  -0.000000  -0.000000  -0.000000  -0.000000
   56  O  3  Y   -0.026880   0.000000  -0.000000  -0.123785  -0.000000
   57  O  3  Z    0.000000   0.000000   0.071074  -0.000000  -0.000000
   58  O  3  X   -0.000000  -0.000000  -0.000000  -0.000000   0.000000
   59  O  3  Y   -0.153797   0.000000   0.000000   0.351143  -0.000000
   60  O  3  Z   -0.000000   0.000000   0.045721  -0.000000  -0.000000
   61  O  3  X   -0.000000  -0.000000  -0.000000  -0.000000  -0.000000
   62  O  3  Y   -0.286568   0.000000   0.000000  12.398001  -0.000000
   63  O  3  Z    0.000000   0.000000  -0.440675   0.000000  -0.000000
   64  O  3 XX    0.000000   0.000000   0.013339  -0.000000  -0.000000
   65  O  3 YY    0.000000   0.000000  -0.038328  -0.000000  -0.000000
[...]
                       E(2)=        -0.2687108043
                     E(MP2)=       -76.3289581212
 SPIN-COMPONENT-SCALED MP2 RESULTS ARE
                      E(2S)=        -0.2034906823
                      E(2T)=        -0.0652201220
                     E(2ST)=        -0.2659288594 = 6/5 * E(2S) + 1/3 * E(2T)
                    SCS-MP2=       -76.3261761763

      COMPUTING CONTRIBUTIONS TO THE 1-PARTICLE DENSITY MATRICES

      COMPUTING THREE-VIRTUAL CONTRIBUTIONS TO THE LAGRANGIAN
      FORMING BACK-TRANSFORMED AMPLITUDES
      COMPUTING (VV|VO) INTEGRAL CLASS 
      SCHWARZ INEQUALITY TEST SKIPPED          0 INTEGRAL BLOCKS
      RESTORING (VO|VO) INTEGRAL CLASS

      SOLVING FOR Z-VECTOR
 DDI: Creating Array [3] - 435 x 50 = 21750 words.

      ITERATION         TESTER  EXPANSION VECTOR NORM
      ===============================================

                                 0.000157678919703
         2        0.0002658027
                                 0.000057495789506
         3        0.0000826053
                                 0.000015483398623
         4        0.0000232779
                                 0.000002376612089
         5        0.0000038044
                                 0.000000402464156
         6        0.0000009252
                                 0.000000060625148
         7        0.0000001906
                                 0.000000006937608
         8        0.0000000280
                                 0.000000000840230
         9        0.0000000046
                                 0.000000000093941
        10        0.0000000006
                                 0.000000000014464
        11        0.0000000001

      CONVERGED - WAVEFUNCTIONS STATIONARY


      COMPUTING LAST CONTRIBUTIONS TO THE 1-PARTICLE DENSITY
 ..... DONE WITH MP2 ENERGY .....
 CPU     0: STEP CPU TIME=     5.06 TOTAL CPU TIME=      175.7 (    2.9 MIN)
 TOTAL WALL CLOCK TIME=      177.0 SECONDS, CPU UTILIZATION IS  99.28%
 ..... END OF 1-ELECTRON GRADIENT ......
 CPU     0: STEP CPU TIME=     0.00 TOTAL CPU TIME=      175.7 (    2.9 MIN)
 TOTAL WALL CLOCK TIME=      177.0 SECONDS, CPU UTILIZATION IS  99.28%

      COMPUTING 2-PARTICLE GRADIENT
      FORMING BACK-TRANSFORMED AMPLITUDES
 THE COARSE/FINE SCHWARZ SCREENINGS SKIPPED          0/         0 BLOCKS.
 THE NUMBER OF GRADIENT INTEGRAL BLOCKS COMPUTED WAS    512802
 ..... DONE WITH MP2 GRADIENT .....
 CPU     0: STEP CPU TIME=     4.84 TOTAL CPU TIME=      180.6 (    3.0 MIN)
 TOTAL WALL CLOCK TIME=      181.9 SECONDS, CPU UTILIZATION IS  99.27%

 UNITS ARE HARTREE/BOHR    E'X               E'Y               E'Z 
    1 H                0.000000000       0.003463981       0.002718020
    2 H                0.000000000       0.003391675      -0.002628368
    3 O                0.000000000      -0.006855655      -0.000089652
  $VIB   
          IVIB=   2 IATOM=   3 ICOORD=   2 E=      -76.3289581212
  0.000000000E+00 3.463980736E-03 2.718019830E-03 0.000000000E+00 3.391674523E-03
 -2.628367659E-03 0.000000000E+00-6.855655259E-03-8.965217380E-05
  0.000000000E+00 1.346027300E-02-1.859458596E+00
1   ATOM  3
                                        -------------------
   COORD  3                             NUCLEAR COORDINATES
                                        -------------------
     VIB  2

                       ATOM             X              Y              Z

                 1  H                0.000000      -1.432665      -0.057421
                 2  H                0.000000       1.432665      -0.057421
                 3  O                0.000000       0.000000       1.049705
 ...... END OF ONE-ELECTRON INTEGRALS ......
 CPU     0: STEP CPU TIME=     0.00 TOTAL CPU TIME=      180.6 (    3.0 MIN)
 TOTAL WALL CLOCK TIME=      181.9 SECONDS, CPU UTILIZATION IS  99.27%
 TOTAL NUMBER OF NONZERO TWO-ELECTRON INTEGRALS =             7265284
        486 INTEGRAL RECORDS WERE STORED ON DISK FILE  8.
  ...... END OF TWO-ELECTRON INTEGRALS .....
 CPU     0: STEP CPU TIME=     0.45 TOTAL CPU TIME=      181.0 (    3.0 MIN)
 TOTAL WALL CLOCK TIME=      182.3 SECONDS, CPU UTILIZATION IS  99.27%

          --------------------------
                 RHF SCF CALCULATION
          --------------------------
     DENSITY MATRIX CONV=  1.00E-06

 ITER EX DEM     TOTAL ENERGY        E CHANGE  DENSITY CHANGE     ORB. GRAD
   1  0  0      -76.0605456478   -76.0605456478   0.001628482   0.000000000
          ---------------START SECOND ORDER SCF---------------
   2  1  0      -76.0605562196    -0.0000105718   0.000355686   0.000216776
   3  2  0      -76.0605569385    -0.0000007189   0.000172821   0.000109922
   4  3  0      -76.0605570870    -0.0000001485   0.000026595   0.000020187
   5  4  0      -76.0605570934    -0.0000000064   0.000022558   0.000005733
   6  5  0      -76.0605570940    -0.0000000007   0.000001884   0.000001561
   7  6  0      -76.0605570940    -0.0000000000   0.000001321   0.000000441

          ----------------
          ENERGY CONVERGED
          ----------------
     TIME TO FORM FOCK OPERATORS=       0.4 SECONDS (       0.1 SEC/ITER)
     TIME TO SOLVE SCF EQUATIONS=       0.0 SECONDS (       0.0 SEC/ITER)

 FINAL RHF ENERGY IS      -76.0605570940 AFTER   7 ITERATIONS
 ...... END OF RHF CALCULATION ......
 CPU     0: STEP CPU TIME=     0.45 TOTAL CPU TIME=      181.4 (    3.0 MIN)
 TOTAL WALL CLOCK TIME=      182.8 SECONDS, CPU UTILIZATION IS  99.26%



 -----------------------------     ------------------------------
 DISTRIBUTED DATA MP2 GRADIENT     PROGRAM WRITTEN BY G. FLETCHER
 -----------------------------     ------------------------------

 DDI: Creating Array [0] - 11025 x 15 = 165375 words.
 DDI: Creating Array [1] - 87 x 75 = 6525 words.
 DDI: Creating Array [2] - 5565 x 15 = 83475 words.
 DDI: Creating Array [3] - 15 x 15 = 225 words.
    THIS CALCULATION IS RUNNING WITH MWORDS=    1, MEMDDI=       0, AND P=    2
 MEMORY USAGE PER CPU IS 8*(MWORDS + MEMDDI/P)/1024 =    0.0 GBYTES.

 MINIMAL REQUIREMENT FOR THIS RUN IS MWORDS=    1, MEMDDI=       1.
 FOR P=    2, THE MEMORY USAGE PER CPU(CORE) WOULD BE    0.0 GBYTES.


      DIRECT 4-INDEX TRANSFORMATION 
      SCHWARZ INEQUALITY TEST SKIPPED          0 INTEGRAL BLOCKS

 RESULTS OF MOLLER-PLESSET 2ND ORDER CORRECTION ARE
                     E(SCF)=       -76.0605570940
                       E(2)=        -0.2684125111
                     E(MP2)=       -76.3289696052
 SPIN-COMPONENT-SCALED MP2 RESULTS ARE
                      E(2S)=        -0.2032620780
                      E(2T)=        -0.0651504332
                     E(2ST)=        -0.2656313046 = 6/5 * E(2S) + 1/3 * E(2T)
                    SCS-MP2=       -76.3261883986

      COMPUTING CONTRIBUTIONS TO THE 1-PARTICLE DENSITY MATRICES

      COMPUTING THREE-VIRTUAL CONTRIBUTIONS TO THE LAGRANGIAN
      FORMING BACK-TRANSFORMED AMPLITUDES
      COMPUTING (VV|VO) INTEGRAL CLASS 
      SCHWARZ INEQUALITY TEST SKIPPED          0 INTEGRAL BLOCKS
      RESTORING (VO|VO) INTEGRAL CLASS

      SOLVING FOR Z-VECTOR
 DDI: Creating Array [3] - 435 x 50 = 21750 words.

      ITERATION         TESTER  EXPANSION VECTOR NORM
      ===============================================

                                 0.000155906778244
         2        0.0002621694
                                 0.000056776826070
         3        0.0000815340
                                 0.000015266656201
         4        0.0000229638
                                 0.000002339627172
         5        0.0000037575
                                 0.000000401803980
         6        0.0000009281
                                 0.000000059958846
         7        0.0000001882
                                 0.000000006801756
         8        0.0000000275
                                 0.000000000818142
         9        0.0000000045
                                 0.000000000079896
        10        0.0000000006
                                 0.000000000005977
        11        0.0000000000

      CONVERGED - WAVEFUNCTIONS STATIONARY


      COMPUTING LAST CONTRIBUTIONS TO THE 1-PARTICLE DENSITY
 ..... DONE WITH MP2 ENERGY .....
 CPU     0: STEP CPU TIME=     5.09 TOTAL CPU TIME=      186.5 (    3.1 MIN)
 TOTAL WALL CLOCK TIME=      187.9 SECONDS, CPU UTILIZATION IS  99.28%
 ..... END OF 1-ELECTRON GRADIENT ......
 CPU     0: STEP CPU TIME=     0.00 TOTAL CPU TIME=      186.5 (    3.1 MIN)
 TOTAL WALL CLOCK TIME=      187.9 SECONDS, CPU UTILIZATION IS  99.28%

      COMPUTING 2-PARTICLE GRADIENT
      FORMING BACK-TRANSFORMED AMPLITUDES
 THE COARSE/FINE SCHWARZ SCREENINGS SKIPPED          0/         0 BLOCKS.
 THE NUMBER OF GRADIENT INTEGRAL BLOCKS COMPUTED WAS    512802
 ..... DONE WITH MP2 GRADIENT .....
 CPU     0: STEP CPU TIME=     4.84 TOTAL CPU TIME=      191.4 (    3.2 MIN)
 TOTAL WALL CLOCK TIME=      192.8 SECONDS, CPU UTILIZATION IS  99.27%

 UNITS ARE HARTREE/BOHR    E'X               E'Y               E'Z 
    1 H                0.000000000       0.002063620       0.002283099
    2 H                0.000000000      -0.002063621       0.002283099
    3 O                0.000000000       0.000000000      -0.004566198
  $VIB   
          IVIB=   2 IATOM=   3 ICOORD=   3 E=      -76.3289696052
  0.000000000E+00 2.063620448E-03 2.283098651E-03 0.000000000E+00-2.063620741E-03
  2.283098898E-03 0.000000000E+00 0.000000000E+00-4.566197548E-03
  0.000000000E+00-4.361067178E-10-1.850419904E+00
 ...... END OF NUMERICAL HESSIAN CALCULATION ......
 CPU     0: STEP CPU TIME=     0.01 TOTAL CPU TIME=      191.4 (    3.2 MIN)
 TOTAL WALL CLOCK TIME=      192.8 SECONDS, CPU UTILIZATION IS  99.27%

          ---------------
          ENERGY GRADIENT
          ---------------

 UNITS ARE HARTREE/BOHR    E'X               E'Y               E'Z 
    1 H                0.000000000       0.000000000       0.000000012
    2 H                0.000000000       0.000000000       0.000000012
    3 O                0.000000000       0.000000000      -0.000000025

          -------------------------------
          CARTESIAN FORCE CONSTANT MATRIX
          -------------------------------

                                   1                          2
                               H                          H         
                          X        Y        Z        X        Y        Z
  1   H            X 0.000009 0.000000 0.000000 0.000000 0.000000-0.000000
                   Y 0.000000 0.372528 0.235410 0.000000-0.029744-0.031894
                   Z 0.000000 0.235410 0.217856 0.000000 0.031894 0.009455
  2   H            X 0.000000 0.000000 0.000000 0.000009-0.000000 0.000000
                   Y 0.000000-0.029744 0.031894-0.000000 0.372528-0.235410
                   Z-0.000000-0.031894 0.009455 0.000000-0.235410 0.217856
  3   O            X-0.000010 0.000000-0.000000-0.000010-0.000000-0.000000
                   Y-0.000000-0.342783-0.267304 0.000000-0.342783 0.267304
                   Z 0.000000-0.203517-0.227311-0.000000 0.203517-0.227311

                                   3
                               O         
                          X        Y        Z
  3   O            X 0.000020 0.000000 0.000000
                   Y 0.000000 0.685566 0.000000
                   Z 0.000000 0.000000 0.454621

          ------------------------          ----------------
          DIPOLE DERIVATIVE TENSOR          (DEBYE/ANGSTROM)
          ------------------------          ----------------

        ATOM                 MU-X           MU-Y           MU-Z
     H          D/DX     1.572555674   -0.000000009    0.000000009
                D/DY     0.000000000    1.271818010   -0.329486053
                D/DZ     0.000000000   -0.234611646    0.849349371
     H          D/DX     1.572555675    0.000000006   -0.000000004
                D/DY     0.000000000    1.271818013    0.329486058
                D/DZ     0.000000000    0.234611633    0.849349376
     O          D/DX    -3.145312490   -0.000000000   -0.000000005
                D/DY     0.000000000   -2.543622845   -0.000000002
                D/DZ     0.000000000   -0.000000008   -1.698720295

          --------------------------------------------------------
          NORMAL COORDINATE ANALYSIS IN THE HARMONIC APPROXIMATION
          --------------------------------------------------------

          ATOMIC WEIGHTS (AMU)

    1     H                 1.00782
    2     H                 1.00782
    3     O                15.99491

 MODES 1 TO 6 ARE TAKEN AS ROTATIONS AND TRANSLATIONS.

 ANALYZING SYMMETRY OF NORMAL MODES...

     FREQUENCIES IN CM**-1, IR INTENSITIES IN DEBYE**2/AMU-ANGSTROM**2,
     REDUCED MASSES IN AMU.

                          1           2           3           4           5
       FREQUENCY:        27.29        1.58        0.01        0.19       15.32  
        SYMMETRY:         A           A           A           A           A   
    REDUCED MASS:      1.04893     5.38025     6.00334     5.91849     1.00783
    IR INTENSITY:      1.93782     0.00554     0.00000     0.00009     0.00000

  1   H            X  0.00002708  0.25654737  0.00000292 -0.00005934  0.70442103
                   Y -0.39143460  0.00005530 -0.01242788  0.23797890  0.00001146
                   Z  0.56758368 -0.00000261  0.23550600  0.00843532 -0.00001634
  2   H            X -0.00001345  0.25655961  0.00000285 -0.00005818 -0.70429168
                   Y -0.39143459  0.00005530 -0.01243099  0.23797874  0.00001145
                   Z -0.56757852  0.00000292  0.23511516  0.01615328  0.00001633
  3   O            X -0.00000005  0.23286349  0.00000259 -0.00005261 -0.00000665
                   Y  0.05113407  0.00005315 -0.01227706  0.23497001 -0.00000128
                   Z  0.00000257  0.00000016  0.23531240  0.01229440 -0.00000000

 TRANS. SAYVETZ    X  0.00001291  4.24175263  0.00004729 -0.00095990  0.00002404
                   Y  0.02888971  0.00096157 -0.22142394  4.23800612  0.00000269
                   Z  0.00004627  0.00000286  4.23810445  0.22142876 -0.00000002
               TOTAL  0.02888975  4.24175274  4.24388476  4.24378693  0.00002419

   ROT. SAYVETZ    X -2.52405115  0.00001230 -0.00086903  0.01716058  0.00007263
                   Y -0.00001373 -0.04737365 -0.00000058  0.00001230 -0.00014263
                   Z  0.00005851 -0.00001767  0.00000010 -0.00000168  2.03400520
               TOTAL  2.52405115  0.04737366  0.00086903  0.01716059  2.03400521

                          6           7           8           9
       FREQUENCY:        16.46     1628.13     3821.99     3947.80  
        SYMMETRY:         A           A           A           A   
    REDUCED MASS:      1.15089     1.08281     1.04504     1.08147
    IR INTENSITY:      5.52043     1.69591     0.13152     1.78575

  1   H            X  0.65590412  0.00000001  0.00000000  0.00000000
                   Y  0.00000381 -0.41045077 -0.57240542  0.53489111
                   Z -0.00000516  0.53942577 -0.38680156  0.41707875
  2   H            X  0.65603822 -0.00000000 -0.00000000 -0.00000000
                   Y  0.00000381  0.41045078  0.57240555  0.53489097
                   Z  0.00000516  0.53942579 -0.38680166 -0.41707865
  3   O            X -0.09107404 -0.00000000 -0.00000000 -0.00000000
                   Y -0.00000022 -0.00000000 -0.00000001 -0.06740596
                   Z  0.00000001 -0.06797661  0.04874415 -0.00000001

 TRANS. SAYVETZ    X -0.13451278  0.00000000 -0.00000000 -0.00000000
                   Y  0.00000422  0.00000000 -0.00000000  0.00000092
                   Z  0.00000010  0.00001388  0.00000160  0.00000001
               TOTAL  0.13451278  0.00001388  0.00000160  0.00000092

   ROT. SAYVETZ    X  0.00002294  0.00000003  0.00000000  0.00001347
                   Y -1.49389021 -0.00000001  0.00000000 -0.00000000
                   Z -0.00019363  0.00000002  0.00000001  0.00000001
               TOTAL  1.49389023  0.00000004  0.00000001  0.00001347

 REFERENCE ON SAYVETZ CONDITIONS - A. SAYVETZ, J.CHEM.PHYS., 7, 383-389(1939).

 NOTE - THE MODES J,K ARE ORTHONORMALIZED ACCORDING TO
 SUM ON I   M(I) * (X(I,J)*X(I,K) + Y(I,J)*Y(I,K) + Z(I,J)*Z(I,K)) = DELTA(J,K)

  MODE FREQ(CM**-1)  SYMMETRY  RED. MASS  IR INTENS.
     1      27.293    A        1.048929    1.937818
     2       1.581    A        5.380255    0.005544
     3       0.013    A        6.003343    0.000000
     4       0.186    A        5.918491    0.000090
     5      15.321    A        1.007825    0.000000
     6      16.463    A        1.150893    5.520426
     7    1628.126    A        1.082813    1.695909
     8    3821.986    A        1.045038    0.131524
     9    3947.796    A        1.081467    1.785752

     -------------------------------
     THERMOCHEMISTRY AT T=  298.15 K
     -------------------------------

 USING IDEAL GAS, RIGID ROTOR, HARMONIC NORMAL MODE APPROXIMATIONS.
 P=  1.01325E+05 PASCAL.
 ALL FREQUENCIES ARE SCALED BY   1.00000
 THE MOMENTS OF INERTIA ARE (IN AMU*BOHR**2)
      2.23395     4.13718     6.37113
 THE ROTATIONAL SYMMETRY NUMBER IS  1.0
 THE ROTATIONAL CONSTANTS ARE (IN GHZ)
    807.12927   435.82572   283.00920
 THE HARMONIC ZERO POINT ENERGY IS (SCALED BY   1.000)
        0.021410 HARTREE/MOLECULE     4698.954149 CM**-1/MOLECULE 
       13.434998 KCAL/MOL               56.212030 KJ/MOL

               Q               LN Q
 ELEC.     1.00000E+00       0.000000
 TRANS.    3.00431E+06      14.915558
 ROT.      8.68638E+01       4.464341
 VIB.      1.00039E+00       0.000387
 TOT.      2.61067E+08      19.380286

              E         H         G         CV        CP        S
           KJ/MOL    KJ/MOL    KJ/MOL   J/MOL-K   J/MOL-K   J/MOL-K
 ELEC.      0.000     0.000     0.000     0.000     0.000     0.000
 TRANS.     3.718     6.197   -36.975    12.472    20.786   144.800
 ROT.       3.718     3.718   -11.067    12.472    12.472    49.590
 VIB.      56.220    56.220    56.211     0.199     0.199     0.029
 TOTAL     63.656    66.135     8.169    25.142    33.457   194.419
 VIB. THERMAL CORRECTION E(T)-E(0) = H(T)-H(0) =     7.543 J/MOL

              E         H         G         CV        CP        S
         KCAL/MOL  KCAL/MOL  KCAL/MOL CAL/MOL-K CAL/MOL-K CAL/MOL-K
 ELEC.      0.000     0.000     0.000     0.000     0.000     0.000
 TRANS.     0.889     1.481    -8.837     2.981     4.968    34.608
 ROT.       0.889     0.889    -2.645     2.981     2.981    11.852
 VIB.      13.437    13.437    13.435     0.048     0.048     0.007
 TOTAL     15.214    15.807     1.953     6.009     7.996    46.467
 VIB. THERMAL CORRECTION E(T)-E(0) = H(T)-H(0) =     1.803 CAL/MOL
 ......END OF NORMAL COORDINATE ANALYSIS......
 CPU     0: STEP CPU TIME=     0.00 TOTAL CPU TIME=      191.4 (    3.2 MIN)
 TOTAL WALL CLOCK TIME=      192.8 SECONDS, CPU UTILIZATION IS  99.27%
               658308  WORDS OF DYNAMIC MEMORY USED
 EXECUTION OF GAMESS TERMINATED NORMALLY Mon Mar  7 00:11:47 2016
 DDI: 1438848 bytes (1.4 MB / 0 MWords) used by master data server.

 ----------------------------------------
 CPU timing information for all processes
 ========================================
 0: 188.852 + 2.540 = 191.393
 1: 188.899 + 2.572 = 191.471
 ----------------------------------------
 ddikick.x: exited gracefully.
----- accounting info -----
Files used on the master node Clevo were:
-rw-r--r-- 1 sagar sagar   320194 Mar  7 00:11 /tmp/H2O_RHF_MP2_augccpVTZ_hessian.dat
-rw-r--r-- 1 sagar sagar      238 Mar  7 00:08 /tmp/H2O_RHF_MP2_augccpVTZ_hessian.F05
-rw-r--r-- 1 sagar sagar 42303760 Mar  7 00:11 /tmp/H2O_RHF_MP2_augccpVTZ_hessian.F08
-rw-r--r-- 1 sagar sagar 45184016 Mar  7 00:11 /tmp/H2O_RHF_MP2_augccpVTZ_hessian.F08.001
-rw-r--r-- 1 sagar sagar  2944800 Mar  7 00:11 /tmp/H2O_RHF_MP2_augccpVTZ_hessian.F10
-rw-r--r-- 1 sagar sagar     5085 Mar  7 00:11 /tmp/H2O_RHF_MP2_augccpVTZ_hessian.rst
Mon Mar  7 00:11:50 WET 2016
0.129u 0.075s 3:16.00 0.0%	0+0k 0+24io 0pf+0w
