----- GAMESS execution script 'rungms' -----
This job is running on host Clevo
under operating system Linux at Tue Mar 8 00:05:04 WET 2016
Available scratch disk space (Kbyte units) at beginning of the job is
Filesystem                                             1K-blocks     Used Available Use% Mounted on
/dev/disk/by-uuid/c2905ecd-da6a-4deb-abcc-9980c215dfc9  34319120 18824256  13728464  58% /
GAMESS temporary binary files will be written to /tmp
GAMESS supplementary output files will be written to .
Copying input file H2O_RHF_CCSDT_augccpVTZ_hessian.inp to your run's scratch directory...

 Distributed Data Interface kickoff program.
 Initiating 2 compute processes on 1 nodes to run the following command:
 /home/sagar/gamess/gamess.01.x H2O_RHF_CCSDT_augccpVTZ_hessian 

          ******************************************************
          *         GAMESS VERSION =  5 DEC 2014 (R1)          *
          *             FROM IOWA STATE UNIVERSITY             *
          * M.W.SCHMIDT, K.K.BALDRIDGE, J.A.BOATZ, S.T.ELBERT, *
          *   M.S.GORDON, J.H.JENSEN, S.KOSEKI, N.MATSUNAGA,   *
          *          K.A.NGUYEN, S.J.SU, T.L.WINDUS,           *
          *       TOGETHER WITH M.DUPUIS, J.A.MONTGOMERY       *
          *         J.COMPUT.CHEM.  14, 1347-1363(1993)        *
          **************** 64 BIT LINUX VERSION ****************

  SINCE 1993, STUDENTS AND POSTDOCS WORKING AT IOWA STATE UNIVERSITY
  AND ALSO IN THEIR VARIOUS JOBS AFTER LEAVING ISU HAVE MADE IMPORTANT
  CONTRIBUTIONS TO THE CODE:
     IVANA ADAMOVIC, CHRISTINE AIKENS, YURI ALEXEEV, POOJA ARORA,
     ANDREY ASADCHEV, ROB BELL, PRADIPTA BANDYOPADHYAY, JONATHAN BENTZ,
     BRETT BODE, KURT BRORSEN, CALEB CARLIN, GALINA CHABAN, WEI CHEN,
     CHEOL HO CHOI, PAUL DAY, ALBERT DEFUSCO, NUWAN DESILVA, TIM DUDLEY,
     DMITRI FEDOROV, GRAHAM FLETCHER, MARK FREITAG, KURT GLAESEMANN,
     DAN KEMP, GRANT MERRILL, NORIYUKI MINEZAWA, JONATHAN MULLIN,
     TAKESHI NAGATA, SEAN NEDD, HEATHER NETZLOFF, BOSILJKA NJEGIC, RYAN OLSON,
     MIKE PAK, SPENCER PRUITT, LUKE ROSKOP, JIM SHOEMAKER, LYUDMILA SLIPCHENKO,
     TONY SMITH, SAROM SOK, JIE SONG, TETSUYA TAKETSUGU, SIMON WEBB,
     PENG XU, SOOHAENG YOO, FEDERICO ZAHARIEV

  ADDITIONAL CODE HAS BEEN PROVIDED BY COLLABORATORS IN OTHER GROUPS:
     IOWA STATE UNIVERSITY:
          JOE IVANIC, AARON WEST, LAIMUTIS BYTAUTAS, KLAUS RUEDENBERG
     UNIVERSITY OF TOKYO: KIMIHIKO HIRAO, TAKAHITO NAKAJIMA,
          TAKAO TSUNEDA, MUNEAKI KAMIYA, SUSUMU YANAGISAWA,
          KIYOSHI YAGI, MAHITO CHIBA, SEIKEN TOKURA, NAOAKI KAWAKAMI
     UNIVERSITY OF AARHUS: FRANK JENSEN
     UNIVERSITY OF IOWA: VISVALDAS KAIRYS, HUI LI
     NATIONAL INST. OF STANDARDS AND TECHNOLOGY: WALT STEVENS, DAVID GARMER
     UNIVERSITY OF PISA: BENEDETTA MENNUCCI, JACOPO TOMASI
     UNIVERSITY OF MEMPHIS: HENRY KURTZ, PRAKASHAN KORAMBATH
     UNIVERSITY OF ALBERTA: TOBY ZENG, MARIUSZ KLOBUKOWSKI
     UNIVERSITY OF NEW ENGLAND: MARK SPACKMAN
     MIE UNIVERSITY: HIROAKI UMEDA
     NAT. INST. OF ADVANCED INDUSTRIAL SCIENCE AND TECHNOLOGY: KAZUO KITAURA
     MICHIGAN STATE UNIVERSITY:
          KAROL KOWALSKI, MARTA WLOCH, JEFFREY GOUR, JESSE LUTZ,
          WEI LI, PIOTR PIECUCH
     UNIVERSITY OF SILESIA: MONIKA MUSIAL, STANISLAW KUCHARSKI
     FACULTES UNIVERSITAIRES NOTRE-DAME DE LA PAIX:
          OLIVIER QUINET, BENOIT CHAMPAGNE
     UNIVERSITY OF CALIFORNIA - SANTA BARBARA: BERNARD KIRTMAN
     INSTITUTE FOR MOLECULAR SCIENCE:
          KAZUYA ISHIMURA, MICHIO KATOUDA, AND SHIGERU NAGASE
     UNIVERSITY OF NOTRE DAME: ANNA POMOGAEVA, DAN CHIPMAN
     KYUSHU UNIVERSITY:
          HARUYUKI NAKANO,
          FENG LONG GU, JACEK KORCHOWIEC, MARCIN MAKOWSKI, AND YURIKO AOKI,
          HIROTOSHI MORI AND EISAKU MIYOSHI
     PENNSYLVANIA STATE UNIVERSITY:
          TZVETELIN IORDANOV, CHET SWALINA, JONATHAN SKONE,
          SHARON HAMMES-SCHIFFER
     WASEDA UNIVERSITY:
          MASATO KOBAYASHI, TOMOKO AKAMA, TSUGUKI TOUMA,
          TAKESHI YOSHIKAWA, YASUHIRO IKABATA, HIROMI NAKAI
     NANJING UNIVERSITY: SHUHUA LI
     UNIVERSITY OF NEBRASKA:
          PEIFENG SU, DEJUN SI, NANDUN THELLAMUREGE, YALI WANG, HUI LI
     UNIVERSITY OF ZURICH: ROBERTO PEVERATI, KIM BALDRIDGE
     N. COPERNICUS UNIVERSITY AND JACKSON STATE UNIVERSITY:
          MARIA BARYSZ
     UNIVERSITY OF COPENHAGEN: CASPER STEINMANN
     TOKYO INSTITUTE OF TECHNOLOGY: HIROYA NAKATA
     NAGOYA UNIVERSITY: YOSHIO NISHIMOTO, STEPHAN IRLE


 PARALLEL VERSION RUNNING ON        2 PROCESSORS IN        1 NODES.

 EXECUTION OF GAMESS BEGUN Tue Mar  8 00:05:04 2016

            ECHO OF THE FIRST FEW INPUT CARDS -
 INPUT CARD> $CONTRL SCFTYP=RHF CCTYP=CCSD(T) RUNTYP=HESSIAN ISPHER=1 $END                  
 INPUT CARD> $SYSTEM MWORDS=4 MEMDDI=8 $END                                                 
 INPUT CARD> $BASIS GBASIS=ACCT $END                                                        
 INPUT CARD> $FORCE METHOD=FULLNUM $END                                                     
 INPUT CARD> $DATA                                                                          
 INPUT CARD>H2O                                                                             
 INPUT CARD>Cnv 2                                                                           
 INPUT CARD>                                                                                
 INPUT CARD> O           8.0   0.0000000000   0.0000000000   0.5605712477                   
 INPUT CARD> H           1.0  -0.0000000000   0.7586662873  -0.0302856238                   
 INPUT CARD> $END                                                                           
    4000000 WORDS OF MEMORY AVAILABLE

     BASIS OPTIONS
     -------------
     GBASIS=ACCT         IGAUSS=       0      POLAR=NONE    
     NDFUNC=       0     NFFUNC=       0     DIFFSP=       F
     NPFUNC=       0      DIFFS=       F     BASNAM=        


     RUN TITLE
     ---------
 H2O                                                                             

 THE POINT GROUP OF THE MOLECULE IS CNV     
 THE ORDER OF THE PRINCIPAL AXIS IS     2

 ATOM      ATOMIC                      COORDINATES (BOHR)
           CHARGE         X                   Y                   Z
 O           8.0     0.0000000000        0.0000000000        1.0593260547
 H           1.0    -0.0000000000       -1.4336713991       -0.0572315303
 H           1.0    -0.0000000000        1.4336713991       -0.0572315303

          INTERNUCLEAR DISTANCES (ANGS.)
          ------------------------------

                1 O          2 H          3 H     

   1 O       0.0000000    0.9616061 *  0.9616061 *
   2 H       0.9616061 *  0.0000000    1.5173326 *
   3 H       0.9616061 *  1.5173326 *  0.0000000  

  * ... LESS THAN  3.000


     ATOMIC BASIS SET
     ----------------
 THE CONTRACTED PRIMITIVE FUNCTIONS HAVE BEEN UNNORMALIZED
 THE CONTRACTED BASIS FUNCTIONS ARE NOW NORMALIZED TO UNITY

  SHELL TYPE  PRIMITIVE        EXPONENT          CONTRACTION COEFFICIENT(S)

 O         

      1   S       1         15330.0000000    0.000520198307
      1   S       2          2299.0000000    0.004023344781
      1   S       3           522.4000000    0.020729083329
      1   S       4           147.3000000    0.081082327080
      1   S       5            47.5500000    0.236226352118
      1   S       6            16.7600000    0.443518209420
      1   S       7             6.2070000    0.358670588689
      1   S       8             0.6882000   -0.008349797237

      2   S       9         15330.0000000   -0.000197236012
      2   S      10          2299.0000000   -0.001535010700
      2   S      11           522.4000000   -0.007951183914
      2   S      12           147.3000000   -0.032113452892
      2   S      13            47.5500000   -0.100269643049
      2   S      14            16.7600000   -0.234047111838
      2   S      15             6.2070000   -0.301410927756
      2   S      16             0.6882000    1.034919649508

      3   S      17             1.7520000    1.000000000000

      4   S      18             0.2384000    1.000000000000

      5   P      19            34.4600000    0.041163489568
      5   P      20             7.7490000    0.257762835858
      5   P      21             2.2800000    0.802419274427

      6   P      22             0.7156000    1.000000000000

      7   P      23             0.2140000    1.000000000000

      8   D      24             2.3140000    1.000000000000

      9   D      25             0.6450000    1.000000000000

     10   F      26             1.4280000    1.000000000000

     11   S      27             0.0737600    1.000000000000

     12   P      28             0.0597400    1.000000000000

     13   D      29             0.2140000    1.000000000000

     14   F      30             0.5000000    1.000000000000

 H         

     24   S      31            33.8700000    0.025494863235
     24   S      32             5.0950000    0.190362765893
     24   S      33             1.1590000    0.852162022245

     25   S      34             0.3258000    1.000000000000

     26   S      35             0.1027000    1.000000000000

     27   P      36             1.4070000    1.000000000000

     28   P      37             0.3880000    1.000000000000

     29   D      38             1.0570000    1.000000000000

     30   S      39             0.0252600    1.000000000000

     31   P      40             0.1020000    1.000000000000

     32   D      41             0.2470000    1.000000000000

 TOTAL NUMBER OF BASIS SET SHELLS             =   32
 NUMBER OF CARTESIAN GAUSSIAN BASIS FUNCTIONS =  105
 NOTE: THIS RUN WILL RESTRICT THE MO VARIATION SPACE TO SPHERICAL HARMONICS.
 THE NUMBER OF ORBITALS KEPT IN THE VARIATIONAL SPACE WILL BE PRINTED LATER.
 NUMBER OF ELECTRONS                          =   10
 CHARGE OF MOLECULE                           =    0
 SPIN MULTIPLICITY                            =    1
 NUMBER OF OCCUPIED ORBITALS (ALPHA)          =    5
 NUMBER OF OCCUPIED ORBITALS (BETA )          =    5
 TOTAL NUMBER OF ATOMS                        =    3
 THE NUCLEAR REPULSION ENERGY IS        9.1536445962

     $CONTRL OPTIONS
     ---------------
 SCFTYP=RHF          RUNTYP=HESSIAN      EXETYP=RUN     
 MPLEVL=       0     CITYP =NONE         CCTYP =CCSD(T)      VBTYP =NONE    
 DFTTYP=NONE         TDDFT =NONE    
 MULT  =       1     ICHARG=       0     NZVAR =       0     COORD =UNIQUE  
 PP    =NONE         RELWFN=NONE         LOCAL =NONE         NUMGRD=       F
 ISPHER=       1     NOSYM =       0     MAXIT =      30     UNITS =ANGS    
 PLTORB=       F     MOLPLT=       F     AIMPAC=       F     FRIEND=        
 NPRINT=       7     IREST =       0     GEOM  =INPUT   
 NORMF =       0     NORMP =       0     ITOL  =      20     ICUT  =       9
 INTTYP=BEST         GRDTYP=BEST         QMTTOL= 1.0E-06

     $SYSTEM OPTIONS
     ---------------
  REPLICATED MEMORY=     4000000 WORDS (ON EVERY NODE).
 DISTRIBUTED MEMDDI=           8 MILLION WORDS IN AGGREGATE,
 MEMDDI DISTRIBUTED OVER   2 PROCESSORS IS     4000000 WORDS/PROCESSOR.
 TOTAL MEMORY REQUESTED ON EACH PROCESSOR=     8000000 WORDS.
 TIMLIM=      525600.00 MINUTES, OR     365.0 DAYS.
 PARALL= T  BALTYP=  DLB     KDIAG=    0  COREFL= F
 MXSEQ2=     300 MXSEQ3=     150  mem10=         0

          ----------------
          PROPERTIES INPUT
          ----------------

     MOMENTS            FIELD           POTENTIAL          DENSITY
 IEMOM =       1   IEFLD =       0   IEPOT =       0   IEDEN =       0
 WHERE =COMASS     WHERE =NUCLEI     WHERE =NUCLEI     WHERE =NUCLEI  
 OUTPUT=BOTH       OUTPUT=BOTH       OUTPUT=BOTH       OUTPUT=BOTH    
 IEMINT=       0   IEFINT=       0                     IEDINT=       0
                                                       MORB  =       0
          EXTRAPOLATION IN EFFECT
          SOSCF IN EFFECT
 ORBITAL PRINTING OPTION: NPREO=     1   105     2     1

     -------------------------------
     INTEGRAL TRANSFORMATION OPTIONS
     -------------------------------
     NWORD  =            0
     CUTOFF = 1.0E-09     MPTRAN =       0
     DIRTRF =       F     AOINTS =DUP     

          ----------------------
          INTEGRAL INPUT OPTIONS
          ----------------------
 NOPK  =       1 NORDER=       0 SCHWRZ=       F

     ------------------------------------------
     THE POINT GROUP IS CNV, NAXIS= 2, ORDER= 4
     ------------------------------------------

 -- VARIATIONAL SPACE WILL BE RESTRICTED TO PURE SPHERICAL HARMONICS ONLY --
 AFTER EXCLUDING CONTAMINANT COMBINATIONS FROM THE CARTESIAN GAUSSIAN BASIS
 SET, THE NUMBER OF SPHERICAL HARMONICS KEPT IN THE VARIATION SPACE IS   92

     DIMENSIONS OF THE SYMMETRY SUBSPACES ARE
 A1  =   35     A2  =   12     B1  =   18     B2  =   27

 ..... DONE SETTING UP THE RUN .....
 CPU     0: STEP CPU TIME=     0.01 TOTAL CPU TIME=        0.0 (    0.0 MIN)
 TOTAL WALL CLOCK TIME=        0.0 SECONDS, CPU UTILIZATION IS  33.33%

     ---------------------------------
     HESSIAN MATRIX CONTROL PARAMETERS
     ---------------------------------
     METHOD=FULLNUM    NVIB  =       2   VIBSIZ= 0.01000
     RDHESS=       F   PURIFY=       F   PRTIFC=       F
     VIBANL=       T   DECOMP=       F   PROJCT=       F
     SCLFAC= 1.00000   PRTSCN=       F   NPRT  =       0
     PULCOR=       F   NPUN  =       0   REDOVB=       T
     THERMOCHEMISTRY WILL BE PRINTED FOR    1 TEMPERATURES:
      298.15000

          ********************
          1 ELECTRON INTEGRALS
          ********************
 ...... END OF ONE-ELECTRON INTEGRALS ......
 CPU     0: STEP CPU TIME=     0.01 TOTAL CPU TIME=        0.0 (    0.0 MIN)
 TOTAL WALL CLOCK TIME=        0.0 SECONDS, CPU UTILIZATION IS  66.67%

          -------------
          GUESS OPTIONS
          -------------
          GUESS =HUCKEL            NORB  =       0          NORDER=       0
          MIX   =       F          PRTMO =       F          PUNMO =       F
          TOLZ  = 1.0E-08          TOLE  = 1.0E-05
          SYMDEN=       F          PURIFY=       F

 INITIAL GUESS ORBITALS GENERATED BY HUCKEL   ROUTINE.
 HUCKEL GUESS REQUIRES     81459 WORDS.

 STATISTICS FOR GENERATION OF SYMMETRY ORBITAL -Q- MATRIX
 NUMBER OF CARTESIAN ATOMIC ORBITALS=        105
 NUMBER OF SPHERICAL CONTAMINANTS DROPPED=    13
 NUMBER OF LINEARLY DEPENDENT MOS DROPPED=     0
 TOTAL NUMBER OF MOS IN VARIATION SPACE=      92

 SYMMETRIES FOR INITIAL GUESS ORBITALS FOLLOW.   BOTH SET(S).
     5 ORBITALS ARE OCCUPIED (    1 CORE ORBITALS).
     2=A1       3=B2       4=A1       5=B1       6=B2       7=A1       8=A1  
     9=A1      10=A1      11=A1      12=A1      13=A1      14=A1      15=A1  
 ...... END OF INITIAL ORBITAL SELECTION ......
 CPU     0: STEP CPU TIME=     0.01 TOTAL CPU TIME=        0.0 (    0.0 MIN)
 TOTAL WALL CLOCK TIME=        0.1 SECONDS, CPU UTILIZATION IS  60.00%

                    ----------------------
                    AO INTEGRAL TECHNOLOGY
                    ----------------------
     S,P,L SHELL ROTATED AXIS INTEGRALS, REPROGRAMMED BY
        KAZUYA ISHIMURA (IMS) AND JOSE SIERRA (SYNSTAR).
     S,P,D,L SHELL ROTATED AXIS INTEGRALS PROGRAMMED BY
        KAZUYA ISHIMURA (INSTITUTE FOR MOLECULAR SCIENCE).
     S,P,D,F,G SHELL TO TOTAL QUARTET ANGULAR MOMENTUM SUM 5,
        ERIC PROGRAM BY GRAHAM FLETCHER (ELORET AND NASA ADVANCED
        SUPERCOMPUTING DIVISION, AMES RESEARCH CENTER).
     S,P,D,F,G,L SHELL GENERAL RYS QUADRATURE PROGRAMMED BY
        MICHEL DUPUIS (PACIFIC NORTHWEST NATIONAL LABORATORY).

          --------------------
          2 ELECTRON INTEGRALS
          --------------------

 THE -PK- OPTION IS OFF, THE INTEGRALS ARE NOT IN SUPERMATRIX FORM.
 STORING   15000 INTEGRALS/RECORD ON DISK, USING 12 BYTES/INTEGRAL.
 TWO ELECTRON INTEGRAL EVALUATION REQUIRES   99628 WORDS OF MEMORY.
 II,JST,KST,LST =  1  1  1  1 NREC =         1 INTLOC =    1
 II,JST,KST,LST =  2  1  1  1 NREC =         1 INTLOC =    1
 II,JST,KST,LST =  3  1  1  1 NREC =         1 INTLOC =    2
 II,JST,KST,LST =  4  1  1  1 NREC =         1 INTLOC =   17
 II,JST,KST,LST =  5  1  1  1 NREC =         1 INTLOC =   39
 II,JST,KST,LST =  6  1  1  1 NREC =         1 INTLOC =   39
 II,JST,KST,LST =  7  1  1  1 NREC =         1 INTLOC =  132
 II,JST,KST,LST =  8  1  1  1 NREC =         1 INTLOC =  297
 II,JST,KST,LST =  9  1  1  1 NREC =         1 INTLOC = 1773
 II,JST,KST,LST = 10  1  1  1 NREC =         1 INTLOC = 4161
 II,JST,KST,LST = 11  1  1  1 NREC =         1 INTLOC =11169
 II,JST,KST,LST = 12  1  1  1 NREC =         1 INTLOC =14706
 II,JST,KST,LST = 13  1  1  1 NREC =         2 INTLOC = 4323
 II,JST,KST,LST = 14  1  1  1 NREC =         3 INTLOC =11304
 II,JST,KST,LST = 15  1  1  1 NREC =         6 INTLOC =12043
 II,JST,KST,LST = 16  1  1  1 NREC =         6 INTLOC =12043
 II,JST,KST,LST = 17  1  1  1 NREC =         6 INTLOC =12043
 II,JST,KST,LST = 18  1  1  1 NREC =         6 INTLOC =12043
 II,JST,KST,LST = 19  1  1  1 NREC =         6 INTLOC =12043
 II,JST,KST,LST = 20  1  1  1 NREC =         6 INTLOC =12043
 II,JST,KST,LST = 21  1  1  1 NREC =         6 INTLOC =12043
 II,JST,KST,LST = 22  1  1  1 NREC =         6 INTLOC =12043
 II,JST,KST,LST = 23  1  1  1 NREC =         6 INTLOC =12043
 II,JST,KST,LST = 24  1  1  1 NREC =         6 INTLOC =12043
 II,JST,KST,LST = 25  1  1  1 NREC =         8 INTLOC = 1662
 II,JST,KST,LST = 26  1  1  1 NREC =         9 INTLOC = 8792
 II,JST,KST,LST = 27  1  1  1 NREC =        11 INTLOC = 9175
 II,JST,KST,LST = 28  1  1  1 NREC =        19 INTLOC = 4210
 II,JST,KST,LST = 29  1  1  1 NREC =        27 INTLOC = 8349
 II,JST,KST,LST = 30  1  1  1 NREC =        50 INTLOC = 4961
 II,JST,KST,LST = 31  1  1  1 NREC =        57 INTLOC =11905
 II,JST,KST,LST = 32  1  1  1 NREC =        76 INTLOC =13479
 TOTAL NUMBER OF NONZERO TWO-ELECTRON INTEGRALS =             3754814
        252 INTEGRAL RECORDS WERE STORED ON DISK FILE  8.
  ...... END OF TWO-ELECTRON INTEGRALS .....
 CPU     0: STEP CPU TIME=     0.17 TOTAL CPU TIME=        0.2 (    0.0 MIN)
 TOTAL WALL CLOCK TIME=        0.2 SECONDS, CPU UTILIZATION IS  95.24%

          --------------------------
                 RHF SCF CALCULATION
          --------------------------

     NUCLEAR ENERGY =         9.1536445962
     MAXIT =   30     NPUNCH=    2
     EXTRAP=T  DAMP=F  SHIFT=F  RSTRCT=F  DIIS=F  DEM=F  SOSCF=T
     DENSITY MATRIX CONV=  1.00E-06
     SOSCF WILL OPTIMIZE     435 ORBITAL ROTATIONS, SOGTOL=   0.250
     MEMORY REQUIRED FOR RHF ITERS=    110385 WORDS.

 ITER EX DEM     TOTAL ENERGY        E CHANGE  DENSITY CHANGE     ORB. GRAD
   1  0  0      -75.7697198913   -75.7697198913   0.648085887   0.000000000
          ---------------START SECOND ORDER SCF---------------
   2  1  0      -76.0436284238    -0.2739085325   0.075516186   0.036471491
   3  2  0      -76.0585609896    -0.0149325658   0.022300207   0.011943147
   4  3  0      -76.0601992740    -0.0016382844   0.002571819   0.002549980
   5  4  0      -76.0602543618    -0.0000550879   0.001179218   0.001410045
   6  5  0      -76.0602676139    -0.0000132521   0.000160464   0.000166667
   7  6  0      -76.0602680389    -0.0000004250   0.000034488   0.000021852
   8  7  0      -76.0602680466    -0.0000000077   0.000010453   0.000005102
   9  8  0      -76.0602680472    -0.0000000006   0.000002622   0.000000945
  10  9  0      -76.0602680472    -0.0000000000   0.000000722   0.000000247
  11 10  0      -76.0602680472    -0.0000000000   0.000000188   0.000000055

 RHF HAS CONVERGED, NOW COMPUTING EXACT TOTAL FOCK MATRIX
 FOR USE DURING THE COUPLED CLUSTER CALCULATION THAT FOLLOWS.

          -----------------
          DENSITY CONVERGED
          -----------------
     TIME TO FORM FOCK OPERATORS=       0.3 SECONDS (       0.0 SEC/ITER)
     TIME TO SOLVE SCF EQUATIONS=       0.0 SECONDS (       0.0 SEC/ITER)

 FINAL RHF ENERGY IS      -76.0602680472 AFTER  11 ITERATIONS

          ------------
          EIGENVECTORS
          ------------

                      1          2          3          4          5
                  -20.5681    -1.3516    -0.7148    -0.5848    -0.5101
                     A1         A1         B2         A1         B1  
    1  O  1  S    0.975404  -0.008332   0.000000   0.004806   0.000000
    2  O  1  S   -0.001456   0.505639   0.000000   0.182224   0.000000
    3  O  1  S    0.043600   0.132785   0.000000   0.052358   0.000000
    4  O  1  S    0.000838   0.294473   0.000000   0.328133   0.000000
    5  O  1  X   -0.000000  -0.000000   0.000000   0.000000   0.354136
    6  O  1  Y   -0.000000  -0.000000   0.284091   0.000000   0.000000
    7  O  1  Z   -0.001870  -0.044263   0.000000   0.311916   0.000000
    8  O  1  X   -0.000000  -0.000000   0.000000   0.000000   0.450210
    9  O  1  Y   -0.000000  -0.000000   0.339417   0.000000   0.000000
   10  O  1  Z    0.001588  -0.063067   0.000000   0.382680   0.000000
   11  O  1  X   -0.000000  -0.000000   0.000000   0.000000   0.325892
   12  O  1  Y   -0.000000  -0.000000   0.157799   0.000000   0.000000
   13  O  1  Z   -0.000264  -0.017401   0.000000   0.213916   0.000000
   14  O  1 XX   -0.000063  -0.003591   0.000000   0.006072   0.000000
   15  O  1 YY    0.000052   0.002655   0.000000  -0.000202   0.000000
   16  O  1 ZZ    0.000010   0.000936   0.000000  -0.005870   0.000000
   17  O  1 XY   -0.000000  -0.000000   0.000000   0.000000   0.000000
   18  O  1 XZ   -0.000000  -0.000000   0.000000   0.000000  -0.005769
   19  O  1 YZ   -0.000000  -0.000000  -0.012711   0.000000   0.000000
   20  O  1 XX    0.000503  -0.009033   0.000000   0.009051   0.000000
   21  O  1 YY   -0.000422   0.005480   0.000000   0.006985   0.000000
   22  O  1 ZZ   -0.000081   0.003553   0.000000  -0.016035   0.000000
   23  O  1 XY   -0.000000  -0.000000   0.000000   0.000000   0.000000
   24  O  1 XZ   -0.000000  -0.000000   0.000000   0.000000  -0.014246
   25  O  1 YZ   -0.000000  -0.000000  -0.023253   0.000000   0.000000
   26  O  1 XXX  -0.000000  -0.000000   0.000000   0.000000  -0.003624
   27  O  1 YYY  -0.000000  -0.000000   0.002253   0.000000   0.000000
   28  O  1 ZZZ   0.000021   0.000922   0.000000   0.000619   0.000000
   29  O  1 XXY  -0.000000  -0.000000  -0.002880   0.000000   0.000000
   30  O  1 XXZ  -0.000010   0.001683   0.000000  -0.002815   0.000000
   31  O  1 YYX  -0.000000  -0.000000   0.000000   0.000000   0.003378
   32  O  1 YYZ  -0.000018  -0.002921   0.000000   0.001985   0.000000
   33  O  1 ZZX  -0.000000  -0.000000   0.000000   0.000000   0.001484
   34  O  1 ZZY  -0.000000  -0.000000  -0.000143   0.000000   0.000000
   35  O  1 XYZ  -0.000000  -0.000000   0.000000   0.000000   0.000000
   36  O  1  S    0.000274   0.034839   0.000000   0.083146   0.000000
   37  O  1  X   -0.000000  -0.000000   0.000000   0.000000   0.033335
   38  O  1  Y   -0.000000  -0.000000   0.008345   0.000000   0.000000
   39  O  1  Z   -0.000168  -0.002819   0.000000   0.013478   0.000000
   40  O  1 XX   -0.000147   0.002290   0.000000  -0.005901   0.000000
   41  O  1 YY    0.000064  -0.003081   0.000000   0.010083   0.000000
   42  O  1 ZZ    0.000083   0.000792   0.000000  -0.004182   0.000000
   43  O  1 XY   -0.000000  -0.000000   0.000000   0.000000   0.000000
   44  O  1 XZ   -0.000000  -0.000000   0.000000   0.000000  -0.005419
   45  O  1 YZ   -0.000000  -0.000000  -0.000422   0.000000   0.000000
   46  O  1 XXX  -0.000000  -0.000000   0.000000   0.000000  -0.001546
   47  O  1 YYY  -0.000000  -0.000000  -0.000030   0.000000   0.000000
   48  O  1 ZZZ  -0.000087  -0.000535   0.000000   0.001601   0.000000
   49  O  1 XXY  -0.000000  -0.000000  -0.002536   0.000000   0.000000
   50  O  1 XXZ  -0.000081   0.000767   0.000000  -0.000707   0.000000
   51  O  1 YYX  -0.000000  -0.000000   0.000000   0.000000   0.001140
   52  O  1 YYZ   0.000198  -0.000050   0.000000  -0.001441   0.000000
   53  O  1 ZZX  -0.000000  -0.000000   0.000000   0.000000   0.000933
   54  O  1 ZZY  -0.000000  -0.000000   0.002577   0.000000   0.000000
   55  O  1 XYZ  -0.000000  -0.000000   0.000000   0.000000   0.000000
   56  H  2  S    0.000499   0.088056  -0.139793  -0.085436   0.000000
   57  H  2  S    0.000974   0.074206  -0.222287  -0.178056   0.000000
   58  H  2  S   -0.000222  -0.014796  -0.036460  -0.064680   0.000000
   59  H  2  X   -0.000000  -0.000000   0.000000   0.000000   0.010602
   60  H  2  Y    0.000160   0.010592  -0.009370  -0.009594   0.000000
   61  H  2  Z    0.000102   0.007454  -0.012648   0.001411   0.000000
   62  H  2  X   -0.000000  -0.000000   0.000000   0.000000   0.029911
   63  H  2  Y    0.000666   0.007861  -0.019369  -0.032560   0.000000
   64  H  2  Z    0.000603   0.005504  -0.028113  -0.001431   0.000000
   65  H  2 XX    0.000059  -0.001163   0.003773   0.001786   0.000000
   66  H  2 YY   -0.000022   0.001074  -0.001662  -0.003789   0.000000
   67  H  2 ZZ   -0.000038   0.000090  -0.002110   0.002003   0.000000
   68  H  2 XY   -0.000000  -0.000000   0.000000   0.000000   0.003784
   69  H  2 XZ   -0.000000  -0.000000   0.000000   0.000000   0.002906
   70  H  2 YZ   -0.000118   0.002103  -0.006225  -0.001924   0.000000
   71  H  2  S    0.000025  -0.001378   0.004737  -0.001859   0.000000
   72  H  2  X   -0.000000  -0.000000   0.000000   0.000000   0.018430
   73  H  2  Y    0.000109  -0.005093   0.008193  -0.004732   0.000000
   74  H  2  Z    0.000078  -0.004291  -0.000211   0.008354   0.000000
   75  H  2 XX   -0.000229   0.000413   0.000280   0.001099   0.000000
   76  H  2 YY    0.000178  -0.000394   0.001995  -0.002900   0.000000
   77  H  2 ZZ    0.000050  -0.000019  -0.002274   0.001800   0.000000
   78  H  2 XY   -0.000000  -0.000000   0.000000   0.000000   0.006073
   79  H  2 XZ   -0.000000  -0.000000   0.000000   0.000000   0.004278
   80  H  2 YZ    0.000399  -0.000848  -0.002688   0.001986   0.000000
   81  H  3  S    0.000499   0.088056   0.139793  -0.085436   0.000000
   82  H  3  S    0.000974   0.074206   0.222287  -0.178056   0.000000
   83  H  3  S   -0.000222  -0.014796   0.036460  -0.064680   0.000000
   84  H  3  X   -0.000000  -0.000000   0.000000   0.000000   0.010602
   85  H  3  Y   -0.000160  -0.010592  -0.009370   0.009594   0.000000
   86  H  3  Z    0.000102   0.007454   0.012648   0.001411   0.000000
   87  H  3  X   -0.000000  -0.000000   0.000000   0.000000   0.029911
   88  H  3  Y   -0.000666  -0.007861  -0.019369   0.032560   0.000000
   89  H  3  Z    0.000603   0.005504   0.028113  -0.001431   0.000000
   90  H  3 XX    0.000059  -0.001163  -0.003773   0.001786   0.000000
   91  H  3 YY   -0.000022   0.001074   0.001662  -0.003789   0.000000
   92  H  3 ZZ   -0.000038   0.000090   0.002110   0.002003   0.000000
   93  H  3 XY   -0.000000  -0.000000   0.000000   0.000000  -0.003784
   94  H  3 XZ   -0.000000  -0.000000   0.000000   0.000000   0.002906
   95  H  3 YZ    0.000118  -0.002103  -0.006225   0.001924   0.000000
   96  H  3  S    0.000025  -0.001378  -0.004737  -0.001859   0.000000
   97  H  3  X   -0.000000  -0.000000   0.000000   0.000000   0.018430
   98  H  3  Y   -0.000109   0.005093   0.008193   0.004732   0.000000
   99  H  3  Z    0.000078  -0.004291   0.000211   0.008354   0.000000
  100  H  3 XX   -0.000229   0.000413  -0.000280   0.001099   0.000000
  101  H  3 YY    0.000178  -0.000394  -0.001995  -0.002900   0.000000
  102  H  3 ZZ    0.000050  -0.000019   0.002274   0.001800   0.000000
  103  H  3 XY   -0.000000  -0.000000   0.000000   0.000000  -0.006073
  104  H  3 XZ   -0.000000  -0.000000   0.000000   0.000000   0.004278
  105  H  3 YZ   -0.000399   0.000848  -0.002688  -0.001986   0.000000

                      6          7          8          9         10
                    0.0294     0.0477     0.1359     0.1588     0.1751
                     A1         B2         A1         B1         A1  
    1  O  1  S   -0.000464  -0.000000  -0.008730  -0.000000  -0.004610
    2  O  1  S    0.058740  -0.000000  -0.060586  -0.000000  -0.142607
    3  O  1  S    0.012499  -0.000000  -0.018957  -0.000000  -0.056210
    4  O  1  S    0.801405  -0.000000   1.576939  -0.000000   1.639239
    5  O  1  X    0.000000  -0.000000  -0.000000  -0.087619   0.000000
    6  O  1  Y    0.000000   0.029080  -0.000000  -0.000000   0.000000
    7  O  1  Z   -0.029076  -0.000000   0.090481  -0.000000   0.018012
    8  O  1  X    0.000000  -0.000000  -0.000000  -0.080499   0.000000
    9  O  1  Y    0.000000   0.074091  -0.000000  -0.000000   0.000000
   10  O  1  Z   -0.072297  -0.000000   0.035641  -0.000000  -0.059532
   11  O  1  X    0.000000  -0.000000  -0.000000   0.041557   0.000000
   12  O  1  Y    0.000000   0.535301  -0.000000  -0.000000   0.000000
   13  O  1  Z   -0.349235  -0.000000  -0.422145  -0.000000  -0.564525
   14  O  1 XX    0.000850  -0.000000  -0.000568  -0.000000   0.003363
   15  O  1 YY   -0.000835  -0.000000   0.000743  -0.000000  -0.001138
   16  O  1 ZZ   -0.000015  -0.000000  -0.000175  -0.000000  -0.002225
   17  O  1 XY    0.000000  -0.000000  -0.000000  -0.000000   0.000000
   18  O  1 XZ    0.000000  -0.000000  -0.000000  -0.001908   0.000000
   19  O  1 YZ    0.000000   0.000045  -0.000000  -0.000000   0.000000
   20  O  1 XX   -0.023369  -0.000000  -0.012491  -0.000000  -0.071473
   21  O  1 YY    0.016654  -0.000000   0.020691  -0.000000   0.054434
   22  O  1 ZZ    0.006716  -0.000000  -0.008199  -0.000000   0.017039
   23  O  1 XY    0.000000  -0.000000  -0.000000  -0.000000   0.000000
   24  O  1 XZ    0.000000  -0.000000  -0.000000   0.028288   0.000000
   25  O  1 YZ    0.000000  -0.030048  -0.000000  -0.000000   0.000000
   26  O  1 XXX   0.000000  -0.000000  -0.000000   0.004611   0.000000
   27  O  1 YYY   0.000000  -0.000365  -0.000000  -0.000000   0.000000
   28  O  1 ZZZ   0.000680  -0.000000   0.001968  -0.000000   0.001353
   29  O  1 XXY   0.000000  -0.000475  -0.000000  -0.000000   0.000000
   30  O  1 XXZ   0.000711  -0.000000   0.000843  -0.000000   0.002513
   31  O  1 YYX   0.000000  -0.000000  -0.000000  -0.003661   0.000000
   32  O  1 YYZ  -0.001624  -0.000000  -0.003482  -0.000000  -0.004328
   33  O  1 ZZX   0.000000  -0.000000  -0.000000  -0.002526   0.000000
   34  O  1 ZZY   0.000000   0.000965  -0.000000  -0.000000   0.000000
   35  O  1 XYZ   0.000000  -0.000000  -0.000000  -0.000000   0.000000
   36  O  1  S    2.385679  -0.000000   6.724503  -0.000000   4.005524
   37  O  1  X    0.000000  -0.000000  -0.000000   1.823163   0.000000
   38  O  1  Y    0.000000   1.132377  -0.000000  -0.000000   0.000000
   39  O  1  Z   -0.222095  -0.000000  -2.057380  -0.000000   0.923202
   40  O  1 XX   -0.047302  -0.000000  -0.095090  -0.000000  -0.024608
   41  O  1 YY    0.048755  -0.000000   0.008530  -0.000000   0.146335
   42  O  1 ZZ   -0.001453  -0.000000   0.086560  -0.000000  -0.121727
   43  O  1 XY    0.000000  -0.000000  -0.000000  -0.000000   0.000000
   44  O  1 XZ    0.000000  -0.000000  -0.000000  -0.205062   0.000000
   45  O  1 YZ    0.000000  -0.127340  -0.000000  -0.000000   0.000000
   46  O  1 XXX   0.000000  -0.000000  -0.000000  -0.013801   0.000000
   47  O  1 YYY   0.000000   0.004765  -0.000000  -0.000000   0.000000
   48  O  1 ZZZ   0.004601  -0.000000  -0.004438  -0.000000   0.019990
   49  O  1 XXY   0.000000  -0.010892  -0.000000  -0.000000   0.000000
   50  O  1 XXZ   0.006624  -0.000000  -0.000690  -0.000000   0.008573
   51  O  1 YYX   0.000000  -0.000000  -0.000000   0.009544   0.000000
   52  O  1 YYZ  -0.012798  -0.000000   0.006645  -0.000000  -0.035392
   53  O  1 ZZX   0.000000  -0.000000  -0.000000   0.008972   0.000000
   54  O  1 ZZY   0.000000   0.004499  -0.000000  -0.000000   0.000000
   55  O  1 XYZ   0.000000  -0.000000  -0.000000  -0.000000   0.000000
   56  H  2  S   -0.001826  -0.006366   0.001072  -0.000000   0.030452
   57  H  2  S   -0.242730   0.256061  -0.244917  -0.000000  -0.497299
   58  H  2  S   -0.952333   1.371177  -3.227076  -0.000000  -1.190564
   59  H  2  X    0.000000  -0.000000  -0.000000   0.000473   0.000000
   60  H  2  Y    0.002036   0.000540  -0.000552  -0.000000  -0.012369
   61  H  2  Z    0.000349  -0.001258  -0.000107  -0.000000  -0.007787
   62  H  2  X    0.000000  -0.000000  -0.000000  -0.039360   0.000000
   63  H  2  Y   -0.079289   0.066109  -0.210443  -0.000000  -0.188129
   64  H  2  Z   -0.060385   0.070302  -0.134932  -0.000000  -0.184448
   65  H  2 XX    0.002572  -0.003068   0.008114  -0.000000   0.004798
   66  H  2 YY   -0.001499   0.003125  -0.006427  -0.000000  -0.002229
   67  H  2 ZZ   -0.001073  -0.000058  -0.001686  -0.000000  -0.002569
   68  H  2 XY    0.000000  -0.000000  -0.000000   0.002028   0.000000
   69  H  2 XZ    0.000000  -0.000000  -0.000000   0.002436   0.000000
   70  H  2 YZ   -0.004865   0.004531  -0.010435  -0.000000  -0.014192
   71  H  2  S   -0.856878   3.417541  -0.734582  -0.000000  -0.697011
   72  H  2  X    0.000000  -0.000000  -0.000000  -0.564860   0.000000
   73  H  2  Y   -0.218732   0.278845  -0.773219  -0.000000  -0.784201
   74  H  2  Z   -0.198167   0.323502  -0.468814  -0.000000  -0.897015
   75  H  2 XX    0.018914  -0.010200   0.042997  -0.000000   0.068000
   76  H  2 YY   -0.015911  -0.004850  -0.058901  -0.000000  -0.043818
   77  H  2 ZZ   -0.003003   0.015050   0.015905  -0.000000  -0.024182
   78  H  2 XY    0.000000  -0.000000  -0.000000  -0.068664   0.000000
   79  H  2 XZ    0.000000  -0.000000  -0.000000  -0.043149   0.000000
   80  H  2 YZ   -0.027474   0.032692  -0.085809  -0.000000  -0.108935
   81  H  3  S   -0.001826   0.006366   0.001072  -0.000000   0.030452
   82  H  3  S   -0.242730  -0.256061  -0.244917  -0.000000  -0.497299
   83  H  3  S   -0.952333  -1.371177  -3.227076  -0.000000  -1.190564
   84  H  3  X    0.000000  -0.000000  -0.000000   0.000473   0.000000
   85  H  3  Y   -0.002036   0.000540   0.000552  -0.000000   0.012369
   86  H  3  Z    0.000349   0.001258  -0.000107  -0.000000  -0.007787
   87  H  3  X    0.000000  -0.000000  -0.000000  -0.039360   0.000000
   88  H  3  Y    0.079289   0.066109   0.210443  -0.000000   0.188129
   89  H  3  Z   -0.060385  -0.070302  -0.134932  -0.000000  -0.184448
   90  H  3 XX    0.002572   0.003068   0.008114  -0.000000   0.004798
   91  H  3 YY   -0.001499  -0.003125  -0.006427  -0.000000  -0.002229
   92  H  3 ZZ   -0.001073   0.000058  -0.001686  -0.000000  -0.002569
   93  H  3 XY    0.000000  -0.000000  -0.000000  -0.002028   0.000000
   94  H  3 XZ    0.000000  -0.000000  -0.000000   0.002436   0.000000
   95  H  3 YZ    0.004865   0.004531   0.010435  -0.000000   0.014192
   96  H  3  S   -0.856878  -3.417541  -0.734582  -0.000000  -0.697011
   97  H  3  X    0.000000  -0.000000  -0.000000  -0.564860   0.000000
   98  H  3  Y    0.218732   0.278845   0.773219  -0.000000   0.784201
   99  H  3  Z   -0.198167  -0.323502  -0.468814  -0.000000  -0.897015
  100  H  3 XX    0.018914   0.010200   0.042997  -0.000000   0.068000
  101  H  3 YY   -0.015911   0.004850  -0.058901  -0.000000  -0.043818
  102  H  3 ZZ   -0.003003  -0.015050   0.015905  -0.000000  -0.024182
  103  H  3 XY    0.000000  -0.000000  -0.000000   0.068664   0.000000
  104  H  3 XZ    0.000000  -0.000000  -0.000000  -0.043149   0.000000
  105  H  3 YZ    0.027474   0.032692   0.085809  -0.000000   0.108935

                     11         12         13         14         15
                    0.1831     0.2271     0.2449     0.2654     0.3001
                     B2         B2         A1         A2         B1  
    1  O  1  S   -0.000000   0.000000  -0.010717   0.000000  -0.000000
    2  O  1  S   -0.000000   0.000000  -0.014702   0.000000  -0.000000
    3  O  1  S   -0.000000   0.000000  -0.004394   0.000000  -0.000000
    4  O  1  S   -0.000000   0.000000   0.169956   0.000000  -0.000000
    5  O  1  X   -0.000000   0.000000  -0.000000   0.000000   0.085321
    6  O  1  Y   -0.094213   0.067341  -0.000000   0.000000  -0.000000
    7  O  1  Z   -0.000000   0.000000  -0.000235   0.000000  -0.000000
    8  O  1  X   -0.000000   0.000000  -0.000000   0.000000   0.052455
    9  O  1  Y   -0.001093   0.032205  -0.000000   0.000000  -0.000000
   10  O  1  Z   -0.000000   0.000000  -0.000881   0.000000  -0.000000
   11  O  1  X   -0.000000   0.000000  -0.000000   0.000000   1.938284
   12  O  1  Y    1.614958   0.816685  -0.000000   0.000000  -0.000000
   13  O  1  Z   -0.000000   0.000000   0.786004   0.000000  -0.000000
   14  O  1 XX   -0.000000   0.000000   0.000449   0.000000  -0.000000
   15  O  1 YY   -0.000000   0.000000  -0.006899   0.000000  -0.000000
   16  O  1 ZZ   -0.000000   0.000000   0.006450   0.000000  -0.000000
   17  O  1 XY   -0.000000   0.000000  -0.000000  -0.005278  -0.000000
   18  O  1 XZ   -0.000000   0.000000  -0.000000   0.000000   0.006376
   19  O  1 YZ    0.004088   0.003908  -0.000000   0.000000  -0.000000
   20  O  1 XX   -0.000000   0.000000   0.006107   0.000000  -0.000000
   21  O  1 YY   -0.000000   0.000000   0.028617   0.000000  -0.000000
   22  O  1 ZZ   -0.000000   0.000000  -0.034724   0.000000  -0.000000
   23  O  1 XY   -0.000000   0.000000  -0.000000   0.012744  -0.000000
   24  O  1 XZ   -0.000000   0.000000  -0.000000   0.000000  -0.033134
   25  O  1 YZ   -0.089101   0.017932  -0.000000   0.000000  -0.000000
   26  O  1 XXX  -0.000000   0.000000  -0.000000   0.000000   0.010039
   27  O  1 YYY  -0.002580   0.001445  -0.000000   0.000000  -0.000000
   28  O  1 ZZZ  -0.000000   0.000000  -0.006004   0.000000  -0.000000
   29  O  1 XXY   0.000373   0.006892  -0.000000   0.000000  -0.000000
   30  O  1 XXZ  -0.000000   0.000000   0.002251   0.000000  -0.000000
   31  O  1 YYX  -0.000000   0.000000  -0.000000   0.000000  -0.007257
   32  O  1 YYZ  -0.000000   0.000000   0.005805   0.000000  -0.000000
   33  O  1 ZZX  -0.000000   0.000000  -0.000000   0.000000  -0.006211
   34  O  1 ZZY   0.003088  -0.008830  -0.000000   0.000000  -0.000000
   35  O  1 XYZ  -0.000000   0.000000  -0.000000   0.011869  -0.000000
   36  O  1  S   -0.000000   0.000000   2.676549   0.000000  -0.000000
   37  O  1  X   -0.000000   0.000000  -0.000000   0.000000   1.923993
   38  O  1  Y    3.622426   1.702931  -0.000000   0.000000  -0.000000
   39  O  1  Z   -0.000000   0.000000   0.579012   0.000000  -0.000000
   40  O  1 XX   -0.000000   0.000000  -0.133562   0.000000  -0.000000
   41  O  1 YY   -0.000000   0.000000   0.772824   0.000000  -0.000000
   42  O  1 ZZ   -0.000000   0.000000  -0.639262   0.000000  -0.000000
   43  O  1 XY   -0.000000   0.000000  -0.000000   0.693256  -0.000000
   44  O  1 XZ   -0.000000   0.000000  -0.000000   0.000000  -0.569255
   45  O  1 YZ   -0.463465  -0.692378  -0.000000   0.000000  -0.000000
   46  O  1 XXX  -0.000000   0.000000  -0.000000   0.000000  -0.096148
   47  O  1 YYY   0.014287  -0.011319  -0.000000   0.000000  -0.000000
   48  O  1 ZZZ  -0.000000   0.000000   0.063700   0.000000  -0.000000
   49  O  1 XXY  -0.034967  -0.043733  -0.000000   0.000000  -0.000000
   50  O  1 XXZ  -0.000000   0.000000  -0.020044   0.000000  -0.000000
   51  O  1 YYX  -0.000000   0.000000  -0.000000   0.000000   0.081308
   52  O  1 YYZ  -0.000000   0.000000  -0.065419   0.000000  -0.000000
   53  O  1 ZZX  -0.000000   0.000000  -0.000000   0.000000   0.047688
   54  O  1 ZZY   0.015798   0.058919  -0.000000   0.000000  -0.000000
   55  O  1 XYZ  -0.000000   0.000000  -0.000000  -0.097251  -0.000000
   56  H  2  S   -0.000365   0.040856  -0.031662   0.000000  -0.000000
   57  H  2  S    0.907743   0.672937  -0.141986   0.000000  -0.000000
   58  H  2  S    4.874741  -0.001978  -1.427116   0.000000  -0.000000
   59  H  2  X   -0.000000   0.000000  -0.000000  -0.001410   0.007158
   60  H  2  Y    0.010946  -0.000301  -0.004739   0.000000  -0.000000
   61  H  2  Z    0.004839  -0.009109   0.005926   0.000000  -0.000000
   62  H  2  X   -0.000000   0.000000  -0.000000   0.278770  -0.337163
   63  H  2  Y    0.246915   0.001000   0.175539   0.000000  -0.000000
   64  H  2  Z    0.257626  -0.022579  -0.279569   0.000000  -0.000000
   65  H  2 XX   -0.011792  -0.000986  -0.004363   0.000000  -0.000000
   66  H  2 YY    0.010079   0.002596   0.007954   0.000000  -0.000000
   67  H  2 ZZ    0.001713  -0.001610  -0.003591   0.000000  -0.000000
   68  H  2 XY   -0.000000   0.000000  -0.000000   0.004636  -0.007771
   69  H  2 XZ   -0.000000   0.000000  -0.000000   0.003233  -0.005878
   70  H  2 YZ    0.016939  -0.002526  -0.009801   0.000000  -0.000000
   71  H  2  S    3.345779   0.072645  -0.093654   0.000000  -0.000000
   72  H  2  X   -0.000000   0.000000  -0.000000   1.790887  -1.898084
   73  H  2  Y    1.117484  -1.288305   0.880705   0.000000  -0.000000
   74  H  2  Z    1.208432  -0.785058  -1.075643   0.000000  -0.000000
   75  H  2 XX   -0.016312   0.158728   0.010540   0.000000  -0.000000
   76  H  2 YY   -0.032400  -0.108834   0.246281   0.000000  -0.000000
   77  H  2 ZZ    0.048712  -0.049894  -0.256822   0.000000  -0.000000
   78  H  2 XY   -0.000000   0.000000  -0.000000   0.248448  -0.308632
   79  H  2 XZ   -0.000000   0.000000  -0.000000   0.221959  -0.192805
   80  H  2 YZ    0.095495  -0.150536  -0.025547   0.000000  -0.000000
   81  H  3  S    0.000365  -0.040856  -0.031662   0.000000  -0.000000
   82  H  3  S   -0.907743  -0.672937  -0.141986   0.000000  -0.000000
   83  H  3  S   -4.874741   0.001978  -1.427116   0.000000  -0.000000
   84  H  3  X   -0.000000   0.000000  -0.000000   0.001410   0.007158
   85  H  3  Y    0.010946  -0.000301   0.004739   0.000000  -0.000000
   86  H  3  Z   -0.004839   0.009109   0.005926   0.000000  -0.000000
   87  H  3  X   -0.000000   0.000000  -0.000000  -0.278770  -0.337163
   88  H  3  Y    0.246915   0.001000  -0.175539   0.000000  -0.000000
   89  H  3  Z   -0.257626   0.022579  -0.279569   0.000000  -0.000000
   90  H  3 XX    0.011792   0.000986  -0.004363   0.000000  -0.000000
   91  H  3 YY   -0.010079  -0.002596   0.007954   0.000000  -0.000000
   92  H  3 ZZ   -0.001713   0.001610  -0.003591   0.000000  -0.000000
   93  H  3 XY   -0.000000   0.000000  -0.000000   0.004636   0.007771
   94  H  3 XZ   -0.000000   0.000000  -0.000000  -0.003233  -0.005878
   95  H  3 YZ    0.016939  -0.002526   0.009801   0.000000  -0.000000
   96  H  3  S   -3.345779  -0.072645  -0.093654   0.000000  -0.000000
   97  H  3  X   -0.000000   0.000000  -0.000000  -1.790887  -1.898084
   98  H  3  Y    1.117484  -1.288305  -0.880705   0.000000  -0.000000
   99  H  3  Z   -1.208432   0.785058  -1.075643   0.000000  -0.000000
  100  H  3 XX    0.016312  -0.158728   0.010540   0.000000  -0.000000
  101  H  3 YY    0.032400   0.108834   0.246281   0.000000  -0.000000
  102  H  3 ZZ   -0.048712   0.049894  -0.256822   0.000000  -0.000000
  103  H  3 XY   -0.000000   0.000000  -0.000000   0.248448   0.308632
  104  H  3 XZ   -0.000000   0.000000  -0.000000  -0.221959  -0.192805
  105  H  3 YZ    0.095495  -0.150536   0.025547   0.000000  -0.000000

                     16         17         18         19         20
                    0.3102     0.3658     0.4373     0.4660     0.5992
                     A1         B2         A1         B2         B2  
    1  O  1  S   -0.020620  -0.000000   0.005050  -0.000000  -0.000000
    2  O  1  S   -0.081393  -0.000000   0.188778  -0.000000  -0.000000
    3  O  1  S   -0.047309  -0.000000   0.052409  -0.000000  -0.000000
    4  O  1  S    1.475733  -0.000000   5.277356  -0.000000  -0.000000
    5  O  1  X    0.000000  -0.000000  -0.000000  -0.000000  -0.000000
    6  O  1  Y    0.000000  -0.013202  -0.000000   0.166448  -0.071369
    7  O  1  Z   -0.084694  -0.000000  -0.104634  -0.000000  -0.000000
    8  O  1  X    0.000000  -0.000000  -0.000000  -0.000000  -0.000000
    9  O  1  Y    0.000000   0.019519  -0.000000   0.492122  -0.006025
   10  O  1  Z   -0.179090  -0.000000  -0.352117  -0.000000  -0.000000
   11  O  1  X    0.000000  -0.000000  -0.000000  -0.000000  -0.000000
   12  O  1  Y    0.000000  -1.206564  -0.000000   3.220372   3.904360
   13  O  1  Z   -2.479042  -0.000000  -0.779556  -0.000000  -0.000000
   14  O  1 XX    0.006384  -0.000000   0.002724  -0.000000  -0.000000
   15  O  1 YY   -0.001453  -0.000000  -0.004912  -0.000000  -0.000000
   16  O  1 ZZ   -0.004931  -0.000000   0.002188  -0.000000  -0.000000
   17  O  1 XY    0.000000  -0.000000  -0.000000  -0.000000  -0.000000
   18  O  1 XZ    0.000000  -0.000000  -0.000000  -0.000000  -0.000000
   19  O  1 YZ    0.000000   0.002160  -0.000000   0.007644  -0.012457
   20  O  1 XX   -0.075640  -0.000000  -0.064494  -0.000000  -0.000000
   21  O  1 YY    0.030079  -0.000000   0.051936  -0.000000  -0.000000
   22  O  1 ZZ    0.045561  -0.000000   0.012558  -0.000000  -0.000000
   23  O  1 XY    0.000000  -0.000000  -0.000000  -0.000000  -0.000000
   24  O  1 XZ    0.000000  -0.000000  -0.000000  -0.000000  -0.000000
   25  O  1 YZ    0.000000  -0.013108  -0.000000  -0.197020  -0.221231
   26  O  1 XXX   0.000000  -0.000000  -0.000000  -0.000000  -0.000000
   27  O  1 YYY   0.000000   0.007880  -0.000000  -0.001425   0.000917
   28  O  1 ZZZ   0.005221  -0.000000   0.004776  -0.000000  -0.000000
   29  O  1 XXY   0.000000  -0.002453  -0.000000  -0.011592   0.009704
   30  O  1 XXZ  -0.005534  -0.000000   0.010672  -0.000000  -0.000000
   31  O  1 YYX   0.000000  -0.000000  -0.000000  -0.000000  -0.000000
   32  O  1 YYZ  -0.001471  -0.000000  -0.017080  -0.000000  -0.000000
   33  O  1 ZZX   0.000000  -0.000000  -0.000000  -0.000000  -0.000000
   34  O  1 ZZY   0.000000  -0.008119  -0.000000   0.013503  -0.010933
   35  O  1 XYZ   0.000000  -0.000000  -0.000000  -0.000000  -0.000000
   36  O  1  S    7.146680  -0.000000  10.688544  -0.000000  -0.000000
   37  O  1  X    0.000000  -0.000000  -0.000000  -0.000000  -0.000000
   38  O  1  Y    0.000000  -3.204597  -0.000000   2.961466   2.282756
   39  O  1  Z   -2.430924  -0.000000  -0.902233  -0.000000  -0.000000
   40  O  1 XX   -0.530797  -0.000000   0.287605  -0.000000  -0.000000
   41  O  1 YY    0.078620  -0.000000  -0.204565  -0.000000  -0.000000
   42  O  1 ZZ    0.452177  -0.000000  -0.083040  -0.000000  -0.000000
   43  O  1 XY    0.000000  -0.000000  -0.000000  -0.000000  -0.000000
   44  O  1 XZ    0.000000  -0.000000  -0.000000  -0.000000  -0.000000
   45  O  1 YZ    0.000000   0.126793  -0.000000  -0.109748  -2.485183
   46  O  1 XXX   0.000000  -0.000000  -0.000000  -0.000000  -0.000000
   47  O  1 YYY   0.000000  -0.067080  -0.000000   0.045307  -0.039219
   48  O  1 ZZZ  -0.013362  -0.000000  -0.012634  -0.000000  -0.000000
   49  O  1 XXY   0.000000   0.022847  -0.000000  -0.018103  -0.144428
   50  O  1 XXZ   0.083764  -0.000000  -0.045506  -0.000000  -0.000000
   51  O  1 YYX   0.000000  -0.000000  -0.000000  -0.000000  -0.000000
   52  O  1 YYZ  -0.065836  -0.000000   0.062456  -0.000000  -0.000000
   53  O  1 ZZX   0.000000  -0.000000  -0.000000  -0.000000  -0.000000
   54  O  1 ZZY   0.000000   0.067150  -0.000000  -0.042683   0.197046
   55  O  1 XYZ   0.000000  -0.000000  -0.000000  -0.000000  -0.000000
   56  H  2  S   -0.014177   0.018339  -0.034378   0.021215  -0.109213
   57  H  2  S   -1.380087  -0.353393  -0.224502   1.187526   2.438322
   58  H  2  S   -3.736316   4.200499  -6.562255  11.377748   6.959271
   59  H  2  X    0.000000  -0.000000  -0.000000  -0.000000  -0.000000
   60  H  2  Y    0.002861  -0.006678   0.016141  -0.000130   0.013731
   61  H  2  Z   -0.009798   0.003203   0.013741  -0.005187   0.004049
   62  H  2  X    0.000000  -0.000000  -0.000000  -0.000000  -0.000000
   63  H  2  Y   -0.477742   0.222124  -0.334256   0.451414   0.541905
   64  H  2  Z   -0.085897  -0.164636  -0.309183   0.493076   0.394501
   65  H  2 XX    0.019070   0.006173   0.010351  -0.023265  -0.016082
   66  H  2 YY   -0.021155  -0.001305  -0.003539   0.017972   0.019503
   67  H  2 ZZ    0.002085  -0.004868  -0.006812   0.005293  -0.003421
   68  H  2 XY    0.000000  -0.000000  -0.000000  -0.000000  -0.000000
   69  H  2 XZ    0.000000  -0.000000  -0.000000  -0.000000  -0.000000
   70  H  2 YZ   -0.018235   0.011446  -0.021244   0.036631   0.024662
   71  H  2  S   -0.271382  -0.667861  -0.700711   2.062788   0.862484
   72  H  2  X    0.000000  -0.000000  -0.000000  -0.000000  -0.000000
   73  H  2  Y   -0.038598   4.452601  -2.209612   3.529279   1.391220
   74  H  2  Z    0.894674  -1.837685  -1.857509   2.424511   0.099718
   75  H  2 XX   -0.042413  -0.195209   0.220661  -0.189260   0.237412
   76  H  2 YY   -0.053251   0.515477  -0.216957   0.085386  -0.046442
   77  H  2 ZZ    0.095664  -0.320268  -0.003704   0.103874  -0.190970
   78  H  2 XY    0.000000  -0.000000  -0.000000  -0.000000  -0.000000
   79  H  2 XZ    0.000000  -0.000000  -0.000000  -0.000000  -0.000000
   80  H  2 YZ    0.148462  -0.149251  -0.396975   0.317644  -0.303554
   81  H  3  S   -0.014177  -0.018339  -0.034378  -0.021215   0.109213
   82  H  3  S   -1.380087   0.353393  -0.224502  -1.187526  -2.438322
   83  H  3  S   -3.736316  -4.200499  -6.562255 -11.377748  -6.959271
   84  H  3  X    0.000000  -0.000000  -0.000000  -0.000000  -0.000000
   85  H  3  Y   -0.002861  -0.006678  -0.016141  -0.000130   0.013731
   86  H  3  Z   -0.009798  -0.003203   0.013741   0.005187  -0.004049
   87  H  3  X    0.000000  -0.000000  -0.000000  -0.000000  -0.000000
   88  H  3  Y    0.477742   0.222124   0.334256   0.451414   0.541905
   89  H  3  Z   -0.085897   0.164636  -0.309183  -0.493076  -0.394501
   90  H  3 XX    0.019070  -0.006173   0.010351   0.023265   0.016082
   91  H  3 YY   -0.021155   0.001305  -0.003539  -0.017972  -0.019503
   92  H  3 ZZ    0.002085   0.004868  -0.006812  -0.005293   0.003421
   93  H  3 XY    0.000000  -0.000000  -0.000000  -0.000000  -0.000000
   94  H  3 XZ    0.000000  -0.000000  -0.000000  -0.000000  -0.000000
   95  H  3 YZ    0.018235   0.011446   0.021244   0.036631   0.024662
   96  H  3  S   -0.271382   0.667861  -0.700711  -2.062788  -0.862484
   97  H  3  X    0.000000  -0.000000  -0.000000  -0.000000  -0.000000
   98  H  3  Y    0.038598   4.452601   2.209612   3.529279   1.391220
   99  H  3  Z    0.894674   1.837685  -1.857509  -2.424511  -0.099718
  100  H  3 XX   -0.042413   0.195209   0.220661   0.189260  -0.237412
  101  H  3 YY   -0.053251  -0.515477  -0.216957  -0.085386   0.046442
  102  H  3 ZZ    0.095664   0.320268  -0.003704  -0.103874   0.190970
  103  H  3 XY    0.000000  -0.000000  -0.000000  -0.000000  -0.000000
  104  H  3 XZ    0.000000  -0.000000  -0.000000  -0.000000  -0.000000
  105  H  3 YZ   -0.148462  -0.149251   0.396975   0.317644  -0.303554

                     21         22         23         24         25
                    0.6584     0.7080     0.7226     0.7317     0.8304
                     A1         A1         A2         B1         A1  
    1  O  1  S   -0.035254  -0.035517   0.000000  -0.000000   0.000033
    2  O  1  S   -0.095236  -0.109246   0.000000  -0.000000   0.089327
    3  O  1  S   -0.025420  -0.030519   0.000000  -0.000000  -0.015048
    4  O  1  S    1.462114   1.745928   0.000000  -0.000000   3.889436
    5  O  1  X   -0.000000   0.000000   0.000000   0.011518  -0.000000
    6  O  1  Y   -0.000000   0.000000   0.000000  -0.000000  -0.000000
    7  O  1  Z   -0.006541   0.027353   0.000000  -0.000000  -0.004738
    8  O  1  X   -0.000000   0.000000   0.000000   0.066440  -0.000000
    9  O  1  Y   -0.000000   0.000000   0.000000  -0.000000  -0.000000
   10  O  1  Z   -0.079743  -0.096576   0.000000  -0.000000  -0.180969
   11  O  1  X   -0.000000   0.000000   0.000000   2.071226  -0.000000
   12  O  1  Y   -0.000000   0.000000   0.000000  -0.000000  -0.000000
   13  O  1  Z    1.387716  -2.185415   0.000000  -0.000000  -1.644301
   14  O  1 XX   -0.016618  -0.029051   0.000000  -0.000000   0.006998
   15  O  1 YY    0.012874   0.009144   0.000000  -0.000000  -0.005401
   16  O  1 ZZ    0.003743   0.019907   0.000000  -0.000000  -0.001596
   17  O  1 XY   -0.000000   0.000000   0.014774  -0.000000  -0.000000
   18  O  1 XZ   -0.000000   0.000000   0.000000  -0.027887  -0.000000
   19  O  1 YZ   -0.000000   0.000000   0.000000  -0.000000  -0.000000
   20  O  1 XX   -0.016076   0.016316   0.000000  -0.000000  -0.098865
   21  O  1 YY    0.149348  -0.041015   0.000000  -0.000000   0.148522
   22  O  1 ZZ   -0.133272   0.024699   0.000000  -0.000000  -0.049657
   23  O  1 XY   -0.000000   0.000000   0.104361  -0.000000  -0.000000
   24  O  1 XZ   -0.000000   0.000000   0.000000   0.007238  -0.000000
   25  O  1 YZ   -0.000000   0.000000   0.000000  -0.000000  -0.000000
   26  O  1 XXX  -0.000000   0.000000   0.000000   0.015996  -0.000000
   27  O  1 YYY  -0.000000   0.000000   0.000000  -0.000000  -0.000000
   28  O  1 ZZZ  -0.008364   0.001676   0.000000  -0.000000  -0.020125
   29  O  1 XXY  -0.000000   0.000000   0.000000  -0.000000  -0.000000
   30  O  1 XXZ   0.007418  -0.003405   0.000000  -0.000000   0.000455
   31  O  1 YYX  -0.000000   0.000000   0.000000  -0.022430  -0.000000
   32  O  1 YYZ   0.003804   0.001157   0.000000  -0.000000   0.026546
   33  O  1 ZZX  -0.000000   0.000000   0.000000   0.000969  -0.000000
   34  O  1 ZZY  -0.000000   0.000000   0.000000  -0.000000  -0.000000
   35  O  1 XYZ  -0.000000   0.000000   0.023471  -0.000000  -0.000000
   36  O  1  S    4.761433   4.193819   0.000000  -0.000000   0.166267
   37  O  1  X   -0.000000   0.000000   0.000000   1.463114  -0.000000
   38  O  1  Y   -0.000000   0.000000   0.000000  -0.000000  -0.000000
   39  O  1  Z   -0.303939  -1.814857   0.000000  -0.000000   0.438144
   40  O  1 XX   -0.547782  -0.942775   0.000000  -0.000000  -0.688473
   41  O  1 YY    1.886217  -0.498938   0.000000  -0.000000   1.403576
   42  O  1 ZZ   -1.338434   1.441713   0.000000  -0.000000  -0.715102
   43  O  1 XY   -0.000000   0.000000   2.063864  -0.000000  -0.000000
   44  O  1 XZ   -0.000000   0.000000   0.000000  -1.493829  -0.000000
   45  O  1 YZ   -0.000000   0.000000   0.000000  -0.000000  -0.000000
   46  O  1 XXX  -0.000000   0.000000   0.000000  -0.140808  -0.000000
   47  O  1 YYY  -0.000000   0.000000   0.000000  -0.000000  -0.000000
   48  O  1 ZZZ   0.133162  -0.043573   0.000000  -0.000000   0.229359
   49  O  1 XXY  -0.000000   0.000000   0.000000  -0.000000  -0.000000
   50  O  1 XXZ  -0.044147   0.061083   0.000000  -0.000000   0.037823
   51  O  1 YYX  -0.000000   0.000000   0.000000   0.156527  -0.000000
   52  O  1 YYZ  -0.134509  -0.002624   0.000000  -0.000000  -0.345541
   53  O  1 ZZX  -0.000000   0.000000   0.000000   0.032386  -0.000000
   54  O  1 ZZY  -0.000000   0.000000   0.000000  -0.000000  -0.000000
   55  O  1 XYZ  -0.000000   0.000000  -0.253709  -0.000000  -0.000000
   56  H  2  S    0.058548   0.063930   0.000000  -0.000000  -0.067040
   57  H  2  S   -0.077777  -0.686542   0.000000  -0.000000  -2.970728
   58  H  2  S   -3.106992  -2.676498   0.000000  -0.000000   0.300175
   59  H  2  X   -0.000000   0.000000  -0.036201   0.033217  -0.000000
   60  H  2  Y   -0.020561   0.025568   0.000000  -0.000000  -0.026049
   61  H  2  Z    0.033922  -0.016727   0.000000  -0.000000  -0.022287
   62  H  2  X   -0.000000   0.000000   0.657401  -0.473070  -0.000000
   63  H  2  Y    0.108487  -0.543734   0.000000  -0.000000  -0.106579
   64  H  2  Z   -0.647591   0.079323   0.000000  -0.000000  -0.520106
   65  H  2 XX   -0.002344   0.021521   0.000000  -0.000000   0.005913
   66  H  2 YY    0.011915  -0.014750   0.000000  -0.000000   0.026694
   67  H  2 ZZ   -0.009571  -0.006771   0.000000  -0.000000  -0.032606
   68  H  2 XY   -0.000000   0.000000   0.015290  -0.009000  -0.000000
   69  H  2 XZ   -0.000000   0.000000   0.012896   0.003127  -0.000000
   70  H  2 YZ   -0.024730  -0.002206   0.000000  -0.000000  -0.016093
   71  H  2  S   -0.136124  -0.092601   0.000000  -0.000000  -0.082936
   72  H  2  X   -0.000000   0.000000   1.694607  -1.453761  -0.000000
   73  H  2  Y    0.459655  -0.517227   0.000000  -0.000000   0.081624
   74  H  2  Z   -1.156020   0.745726   0.000000  -0.000000  -0.252578
   75  H  2 XX    0.005582  -0.160630   0.000000  -0.000000  -0.087347
   76  H  2 YY    0.585195  -0.310616   0.000000  -0.000000   0.012390
   77  H  2 ZZ   -0.590777   0.471246   0.000000  -0.000000   0.074956
   78  H  2 XY   -0.000000   0.000000   0.710102  -0.327944  -0.000000
   79  H  2 XZ   -0.000000   0.000000   0.521168  -0.512832  -0.000000
   80  H  2 YZ   -0.112644   0.002397   0.000000  -0.000000  -0.400473
   81  H  3  S    0.058548   0.063930   0.000000  -0.000000  -0.067040
   82  H  3  S   -0.077777  -0.686542   0.000000  -0.000000  -2.970728
   83  H  3  S   -3.106992  -2.676498   0.000000  -0.000000   0.300175
   84  H  3  X   -0.000000   0.000000   0.036201   0.033217  -0.000000
   85  H  3  Y    0.020561  -0.025568   0.000000  -0.000000   0.026049
   86  H  3  Z    0.033922  -0.016727   0.000000  -0.000000  -0.022287
   87  H  3  X   -0.000000   0.000000  -0.657401  -0.473070  -0.000000
   88  H  3  Y   -0.108487   0.543734   0.000000  -0.000000   0.106579
   89  H  3  Z   -0.647591   0.079323   0.000000  -0.000000  -0.520106
   90  H  3 XX   -0.002344   0.021521   0.000000  -0.000000   0.005913
   91  H  3 YY    0.011915  -0.014750   0.000000  -0.000000   0.026694
   92  H  3 ZZ   -0.009571  -0.006771   0.000000  -0.000000  -0.032606
   93  H  3 XY   -0.000000   0.000000   0.015290   0.009000  -0.000000
   94  H  3 XZ   -0.000000   0.000000  -0.012896   0.003127  -0.000000
   95  H  3 YZ    0.024730   0.002206   0.000000  -0.000000   0.016093
   96  H  3  S   -0.136124  -0.092601   0.000000  -0.000000  -0.082936
   97  H  3  X   -0.000000   0.000000  -1.694607  -1.453761  -0.000000
   98  H  3  Y   -0.459655   0.517227   0.000000  -0.000000  -0.081624
   99  H  3  Z   -1.156020   0.745726   0.000000  -0.000000  -0.252578
  100  H  3 XX    0.005582  -0.160630   0.000000  -0.000000  -0.087347
  101  H  3 YY    0.585195  -0.310616   0.000000  -0.000000   0.012390
  102  H  3 ZZ   -0.590777   0.471246   0.000000  -0.000000   0.074956
  103  H  3 XY   -0.000000   0.000000   0.710102   0.327944  -0.000000
  104  H  3 XZ   -0.000000   0.000000  -0.521168  -0.512832  -0.000000
  105  H  3 YZ    0.112644  -0.002397   0.000000  -0.000000   0.400473

                     26         27         28         29         30
                    0.8462     0.8922     0.9124     0.9184     0.9223
                     B1         A1         B2         B1         A2  
    1  O  1  S   -0.000000  -0.054167   0.000000   0.000000   0.000000
    2  O  1  S   -0.000000  -0.001558   0.000000   0.000000   0.000000
    3  O  1  S   -0.000000  -0.083460   0.000000   0.000000   0.000000
    4  O  1  S   -0.000000   9.168673   0.000000   0.000000   0.000000
    5  O  1  X   -0.113753   0.000000   0.000000  -0.159421   0.000000
    6  O  1  Y   -0.000000   0.000000   0.037294   0.000000   0.000000
    7  O  1  Z   -0.000000   0.236478   0.000000   0.000000   0.000000
    8  O  1  X   -0.214252   0.000000   0.000000  -0.398867   0.000000
    9  O  1  Y   -0.000000   0.000000   0.191114   0.000000   0.000000
   10  O  1  Z   -0.000000  -0.072755   0.000000   0.000000   0.000000
   11  O  1  X    3.451170   0.000000   0.000000   2.671662   0.000000
   12  O  1  Y   -0.000000   0.000000   3.081674   0.000000   0.000000
   13  O  1  Z   -0.000000  -6.772101   0.000000   0.000000   0.000000
   14  O  1 XX   -0.000000   0.018064   0.000000   0.000000   0.000000
   15  O  1 YY   -0.000000  -0.000773   0.000000   0.000000   0.000000
   16  O  1 ZZ   -0.000000  -0.017291   0.000000   0.000000   0.000000
   17  O  1 XY   -0.000000   0.000000   0.000000   0.000000  -0.028755
   18  O  1 XZ    0.014189   0.000000   0.000000   0.029018   0.000000
   19  O  1 YZ   -0.000000   0.000000  -0.005377   0.000000   0.000000
   20  O  1 XX   -0.000000  -0.377871   0.000000   0.000000   0.000000
   21  O  1 YY   -0.000000   0.238519   0.000000   0.000000   0.000000
   22  O  1 ZZ   -0.000000   0.139352   0.000000   0.000000   0.000000
   23  O  1 XY   -0.000000   0.000000   0.000000   0.000000   0.140958
   24  O  1 XZ   -0.132356   0.000000   0.000000  -0.165529   0.000000
   25  O  1 YZ   -0.000000   0.000000  -0.019557   0.000000   0.000000
   26  O  1 XXX   0.018515   0.000000   0.000000   0.006618   0.000000
   27  O  1 YYY  -0.000000   0.000000  -0.016210   0.000000   0.000000
   28  O  1 ZZZ  -0.000000   0.026181   0.000000   0.000000   0.000000
   29  O  1 XXY  -0.000000   0.000000   0.029035   0.000000   0.000000
   30  O  1 XXZ  -0.000000  -0.011653   0.000000   0.000000   0.000000
   31  O  1 YYX   0.006261   0.000000   0.000000  -0.030366   0.000000
   32  O  1 YYZ  -0.000000  -0.023473   0.000000   0.000000   0.000000
   33  O  1 ZZX  -0.031101   0.000000   0.000000   0.021487   0.000000
   34  O  1 ZZY  -0.000000   0.000000  -0.007286   0.000000   0.000000
   35  O  1 XYZ  -0.000000   0.000000   0.000000   0.000000   0.000771
   36  O  1  S   -0.000000   8.246632   0.000000   0.000000   0.000000
   37  O  1  X    0.690106   0.000000   0.000000   0.180006   0.000000
   38  O  1  Y   -0.000000   0.000000   0.935116   0.000000   0.000000
   39  O  1  Z   -0.000000  -1.143955   0.000000   0.000000   0.000000
   40  O  1 XX   -0.000000  -1.801333   0.000000   0.000000   0.000000
   41  O  1 YY   -0.000000   0.787163   0.000000   0.000000   0.000000
   42  O  1 ZZ   -0.000000   1.014170   0.000000   0.000000   0.000000
   43  O  1 XY   -0.000000   0.000000   0.000000   0.000000   0.134155
   44  O  1 XZ   -1.402091   0.000000   0.000000   0.535841   0.000000
   45  O  1 YZ   -0.000000   0.000000  -1.519725   0.000000   0.000000
   46  O  1 XXX  -0.174797   0.000000   0.000000  -0.100777   0.000000
   47  O  1 YYY  -0.000000   0.000000   0.076647   0.000000   0.000000
   48  O  1 ZZZ  -0.000000  -0.018001   0.000000   0.000000   0.000000
   49  O  1 XXY  -0.000000   0.000000  -0.185101   0.000000   0.000000
   50  O  1 XXZ  -0.000000   0.258018   0.000000   0.000000   0.000000
   51  O  1 YYX   0.045462   0.000000   0.000000   0.220645   0.000000
   52  O  1 YYZ  -0.000000  -0.233867   0.000000   0.000000   0.000000
   53  O  1 ZZX   0.189053   0.000000   0.000000  -0.085438   0.000000
   54  O  1 ZZY  -0.000000   0.000000   0.082268   0.000000   0.000000
   55  O  1 XYZ  -0.000000   0.000000   0.000000   0.000000  -0.009966
   56  H  2  S   -0.000000   0.051412  -0.002135   0.000000   0.000000
   57  H  2  S   -0.000000  -5.020714   2.518001   0.000000   0.000000
   58  H  2  S   -0.000000  -4.854136   0.656633   0.000000   0.000000
   59  H  2  X    0.031676   0.000000   0.000000   0.000285   0.001714
   60  H  2  Y   -0.000000  -0.031896   0.021968   0.000000   0.000000
   61  H  2  Z   -0.000000  -0.050273  -0.001148   0.000000   0.000000
   62  H  2  X   -0.618585   0.000000   0.000000  -0.312084   0.043924
   63  H  2  Y   -0.000000  -1.674632   0.030491   0.000000   0.000000
   64  H  2  Z   -0.000000  -0.712691   0.146810   0.000000   0.000000
   65  H  2 XX   -0.000000   0.046449   0.022501   0.000000   0.000000
   66  H  2 YY   -0.000000  -0.055217   0.001328   0.000000   0.000000
   67  H  2 ZZ   -0.000000   0.008768  -0.023829   0.000000   0.000000
   68  H  2 XY   -0.001276   0.000000   0.000000  -0.025923   0.002034
   69  H  2 XZ   -0.021296   0.000000   0.000000  -0.004253  -0.030388
   70  H  2 YZ   -0.000000  -0.084790  -0.004183   0.000000   0.000000
   71  H  2  S   -0.000000  -0.339437   0.464109   0.000000   0.000000
   72  H  2  X   -1.236841   0.000000   0.000000  -0.754520   0.537317
   73  H  2  Y   -0.000000  -0.752167  -0.378754   0.000000   0.000000
   74  H  2  Z   -0.000000  -0.040879   0.696518   0.000000   0.000000
   75  H  2 XX   -0.000000   0.271536  -0.482209   0.000000   0.000000
   76  H  2 YY   -0.000000  -0.325916  -0.231718   0.000000   0.000000
   77  H  2 ZZ   -0.000000   0.054380   0.713927   0.000000   0.000000
   78  H  2 XY   -1.139512   0.000000   0.000000  -0.137488   0.448737
   79  H  2 XZ   -0.158557   0.000000   0.000000  -0.909892   0.940043
   80  H  2 YZ   -0.000000   0.324726   0.224214   0.000000   0.000000
   81  H  3  S   -0.000000   0.051412   0.002135   0.000000   0.000000
   82  H  3  S   -0.000000  -5.020714  -2.518001   0.000000   0.000000
   83  H  3  S   -0.000000  -4.854136  -0.656633   0.000000   0.000000
   84  H  3  X    0.031676   0.000000   0.000000   0.000285  -0.001714
   85  H  3  Y   -0.000000   0.031896   0.021968   0.000000   0.000000
   86  H  3  Z   -0.000000  -0.050273   0.001148   0.000000   0.000000
   87  H  3  X   -0.618585   0.000000   0.000000  -0.312084  -0.043924
   88  H  3  Y   -0.000000   1.674632   0.030491   0.000000   0.000000
   89  H  3  Z   -0.000000  -0.712691  -0.146810   0.000000   0.000000
   90  H  3 XX   -0.000000   0.046449  -0.022501   0.000000   0.000000
   91  H  3 YY   -0.000000  -0.055217  -0.001328   0.000000   0.000000
   92  H  3 ZZ   -0.000000   0.008768   0.023829   0.000000   0.000000
   93  H  3 XY    0.001276   0.000000   0.000000   0.025923   0.002034
   94  H  3 XZ   -0.021296   0.000000   0.000000  -0.004253   0.030388
   95  H  3 YZ   -0.000000   0.084790  -0.004183   0.000000   0.000000
   96  H  3  S   -0.000000  -0.339437  -0.464109   0.000000   0.000000
   97  H  3  X   -1.236841   0.000000   0.000000  -0.754520  -0.537317
   98  H  3  Y   -0.000000   0.752167  -0.378754   0.000000   0.000000
   99  H  3  Z   -0.000000  -0.040879  -0.696518   0.000000   0.000000
  100  H  3 XX   -0.000000   0.271536   0.482209   0.000000   0.000000
  101  H  3 YY   -0.000000  -0.325916   0.231718   0.000000   0.000000
  102  H  3 ZZ   -0.000000   0.054380  -0.713927   0.000000   0.000000
  103  H  3 XY    1.139512   0.000000   0.000000   0.137488   0.448737
  104  H  3 XZ   -0.158557   0.000000   0.000000  -0.909892  -0.940043
  105  H  3 YZ   -0.000000  -0.324726   0.224214   0.000000   0.000000

                     31         32         33         34         35
                    0.9307     0.9615     1.0207     1.0430     1.0825
                     B2         A1         A1         B2         B1  
    1  O  1  S   -0.000000   0.010813   0.058086  -0.000000  -0.000000
    2  O  1  S   -0.000000  -0.018624  -0.109957  -0.000000  -0.000000
    3  O  1  S   -0.000000  -0.001697  -0.033593  -0.000000  -0.000000
    4  O  1  S   -0.000000   0.067935   6.017354  -0.000000  -0.000000
    5  O  1  X   -0.000000   0.000000  -0.000000  -0.000000   0.170963
    6  O  1  Y   -0.102482   0.000000  -0.000000  -0.252842  -0.000000
    7  O  1  Z   -0.000000   0.091011   0.128020  -0.000000  -0.000000
    8  O  1  X   -0.000000   0.000000  -0.000000  -0.000000   0.601052
    9  O  1  Y   -0.092985   0.000000  -0.000000   0.169396  -0.000000
   10  O  1  Z   -0.000000   0.164147  -0.080987  -0.000000  -0.000000
   11  O  1  X   -0.000000   0.000000  -0.000000  -0.000000  -0.592324
   12  O  1  Y    5.562714   0.000000  -0.000000  -1.021782  -0.000000
   13  O  1  Z   -0.000000  -0.474765   1.038855  -0.000000  -0.000000
   14  O  1 XX   -0.000000   0.014617   0.001597  -0.000000  -0.000000
   15  O  1 YY   -0.000000   0.008981  -0.002158  -0.000000  -0.000000
   16  O  1 ZZ   -0.000000  -0.023598   0.000560  -0.000000  -0.000000
   17  O  1 XY   -0.000000   0.000000  -0.000000  -0.000000  -0.000000
   18  O  1 XZ   -0.000000   0.000000  -0.000000  -0.000000   0.008134
   19  O  1 YZ    0.004301   0.000000  -0.000000  -0.007247  -0.000000
   20  O  1 XX   -0.000000  -0.088360  -0.047536  -0.000000  -0.000000
   21  O  1 YY   -0.000000  -0.013664   0.076943  -0.000000  -0.000000
   22  O  1 ZZ   -0.000000   0.102024  -0.029407  -0.000000  -0.000000
   23  O  1 XY   -0.000000   0.000000  -0.000000  -0.000000  -0.000000
   24  O  1 XZ   -0.000000   0.000000  -0.000000  -0.000000  -0.005290
   25  O  1 YZ   -0.065503   0.000000  -0.000000  -0.214576  -0.000000
   26  O  1 XXX  -0.000000   0.000000  -0.000000  -0.000000   0.000684
   27  O  1 YYY  -0.014659   0.000000  -0.000000  -0.005506  -0.000000
   28  O  1 ZZZ  -0.000000  -0.016868   0.005101  -0.000000  -0.000000
   29  O  1 XXY  -0.001538   0.000000  -0.000000  -0.021242  -0.000000
   30  O  1 XXZ  -0.000000   0.022621   0.004031  -0.000000  -0.000000
   31  O  1 YYX  -0.000000   0.000000  -0.000000  -0.000000  -0.007241
   32  O  1 YYZ  -0.000000   0.000009  -0.010875  -0.000000  -0.000000
   33  O  1 ZZX  -0.000000   0.000000  -0.000000  -0.000000   0.006324
   34  O  1 ZZY   0.021204   0.000000  -0.000000   0.028630  -0.000000
   35  O  1 XYZ  -0.000000   0.000000  -0.000000  -0.000000  -0.000000
   36  O  1  S   -0.000000   3.547399   6.014061  -0.000000  -0.000000
   37  O  1  X   -0.000000   0.000000  -0.000000  -0.000000   0.220379
   38  O  1  Y    2.787460   0.000000  -0.000000   0.732278  -0.000000
   39  O  1  Z   -0.000000  -0.558175  -0.159068  -0.000000  -0.000000
   40  O  1 XX   -0.000000   1.664392   0.866041  -0.000000  -0.000000
   41  O  1 YY   -0.000000  -0.792212  -0.649010  -0.000000  -0.000000
   42  O  1 ZZ   -0.000000  -0.872179  -0.217031  -0.000000  -0.000000
   43  O  1 XY   -0.000000   0.000000  -0.000000  -0.000000  -0.000000
   44  O  1 XZ   -0.000000   0.000000  -0.000000  -0.000000   0.832400
   45  O  1 YZ   -0.702040   0.000000  -0.000000   2.181390  -0.000000
   46  O  1 XXX  -0.000000   0.000000  -0.000000  -0.000000   0.084799
   47  O  1 YYY   0.219285   0.000000  -0.000000   0.041674  -0.000000
   48  O  1 ZZZ  -0.000000   0.082550  -0.060972  -0.000000  -0.000000
   49  O  1 XXY  -0.073390   0.000000  -0.000000   0.117708  -0.000000
   50  O  1 XXZ  -0.000000  -0.131754  -0.079360  -0.000000  -0.000000
   51  O  1 YYX  -0.000000   0.000000  -0.000000  -0.000000  -0.040525
   52  O  1 YYZ  -0.000000   0.021003   0.161163  -0.000000  -0.000000
   53  O  1 ZZX  -0.000000   0.000000  -0.000000  -0.000000  -0.073245
   54  O  1 ZZY  -0.220812   0.000000  -0.000000  -0.173619  -0.000000
   55  O  1 XYZ  -0.000000   0.000000  -0.000000  -0.000000  -0.000000
   56  H  2  S   -0.037251   0.021482   0.101286  -0.128925  -0.000000
   57  H  2  S    1.651687   1.395458   1.297966  -1.833630  -0.000000
   58  H  2  S    1.205140  -2.566558  -5.218029   7.833231  -0.000000
   59  H  2  X   -0.000000   0.000000  -0.000000  -0.000000  -0.020646
   60  H  2  Y    0.033646   0.010023   0.025218  -0.024814  -0.000000
   61  H  2  Z   -0.028790   0.010822   0.030789   0.003769  -0.000000
   62  H  2  X   -0.000000   0.000000  -0.000000  -0.000000   0.463405
   63  H  2  Y   -0.156630  -0.132122  -0.475044   0.769456  -0.000000
   64  H  2  Z    0.866785  -0.136859  -0.445025   0.650476  -0.000000
   65  H  2 XX   -0.033164   0.026138  -0.003172  -0.027342  -0.000000
   66  H  2 YY    0.007253  -0.004301  -0.000586   0.015571  -0.000000
   67  H  2 ZZ    0.025911  -0.021837   0.003758   0.011772  -0.000000
   68  H  2 XY   -0.000000   0.000000  -0.000000  -0.000000   0.044911
   69  H  2 XZ   -0.000000   0.000000  -0.000000  -0.000000   0.037687
   70  H  2 YZ    0.007492  -0.002206  -0.006122   0.051575  -0.000000
   71  H  2  S    0.666333  -0.136937  -0.329380   0.873985  -0.000000
   72  H  2  X   -0.000000   0.000000  -0.000000  -0.000000  -0.094569
   73  H  2  Y   -2.255485  -0.721984  -2.068915   3.242761  -0.000000
   74  H  2  Z    2.373362  -0.171695  -1.911369   1.747871  -0.000000
   75  H  2 XX    0.572413  -0.691636   0.782621  -0.971131  -0.000000
   76  H  2 YY   -1.583589  -0.124777  -0.504893   0.857659  -0.000000
   77  H  2 ZZ    1.011176   0.816413  -0.277728   0.113472  -0.000000
   78  H  2 XY   -0.000000   0.000000  -0.000000  -0.000000  -0.348355
   79  H  2 XZ   -0.000000   0.000000  -0.000000  -0.000000  -0.579101
   80  H  2 YZ    0.503486  -0.211957  -1.197268   1.130919  -0.000000
   81  H  3  S    0.037251   0.021482   0.101286   0.128925  -0.000000
   82  H  3  S   -1.651687   1.395458   1.297966   1.833630  -0.000000
   83  H  3  S   -1.205140  -2.566558  -5.218029  -7.833231  -0.000000
   84  H  3  X   -0.000000   0.000000  -0.000000  -0.000000  -0.020646
   85  H  3  Y    0.033646  -0.010023  -0.025218  -0.024814  -0.000000
   86  H  3  Z    0.028790   0.010822   0.030789  -0.003769  -0.000000
   87  H  3  X   -0.000000   0.000000  -0.000000  -0.000000   0.463405
   88  H  3  Y   -0.156630   0.132122   0.475044   0.769456  -0.000000
   89  H  3  Z   -0.866785  -0.136859  -0.445025  -0.650476  -0.000000
   90  H  3 XX    0.033164   0.026138  -0.003172   0.027342  -0.000000
   91  H  3 YY   -0.007253  -0.004301  -0.000586  -0.015571  -0.000000
   92  H  3 ZZ   -0.025911  -0.021837   0.003758  -0.011772  -0.000000
   93  H  3 XY   -0.000000   0.000000  -0.000000  -0.000000  -0.044911
   94  H  3 XZ   -0.000000   0.000000  -0.000000  -0.000000   0.037687
   95  H  3 YZ    0.007492   0.002206   0.006122   0.051575  -0.000000
   96  H  3  S   -0.666333  -0.136937  -0.329380  -0.873985  -0.000000
   97  H  3  X   -0.000000   0.000000  -0.000000  -0.000000  -0.094569
   98  H  3  Y   -2.255485   0.721984   2.068915   3.242761  -0.000000
   99  H  3  Z   -2.373362  -0.171695  -1.911369  -1.747871  -0.000000
  100  H  3 XX   -0.572413  -0.691636   0.782621   0.971131  -0.000000
  101  H  3 YY    1.583589  -0.124777  -0.504893  -0.857659  -0.000000
  102  H  3 ZZ   -1.011176   0.816413  -0.277728  -0.113472  -0.000000
  103  H  3 XY   -0.000000   0.000000  -0.000000  -0.000000   0.348355
  104  H  3 XZ   -0.000000   0.000000  -0.000000  -0.000000  -0.579101
  105  H  3 YZ    0.503486   0.211957   1.197268   1.130919  -0.000000

                     36         37         38         39         40
                    1.1084     1.1760     1.1816     1.2611     1.5100
                     B2         A2         A1         B2         A2  
    1  O  1  S   -0.000000  -0.000000   0.013235   0.000000  -0.000000
    2  O  1  S   -0.000000  -0.000000   0.082419   0.000000  -0.000000
    3  O  1  S   -0.000000  -0.000000  -0.018594   0.000000  -0.000000
    4  O  1  S   -0.000000  -0.000000   2.649381   0.000000  -0.000000
    5  O  1  X   -0.000000  -0.000000  -0.000000   0.000000  -0.000000
    6  O  1  Y   -0.027209  -0.000000  -0.000000  -0.123716  -0.000000
    7  O  1  Z   -0.000000  -0.000000   0.071352   0.000000  -0.000000
    8  O  1  X   -0.000000  -0.000000  -0.000000   0.000000  -0.000000
    9  O  1  Y   -0.153885  -0.000000  -0.000000   0.350654  -0.000000
   10  O  1  Z   -0.000000  -0.000000   0.046656   0.000000  -0.000000
   11  O  1  X   -0.000000  -0.000000  -0.000000   0.000000  -0.000000
   12  O  1  Y   -0.291937  -0.000000  -0.000000  12.402593  -0.000000
   13  O  1  Z   -0.000000  -0.000000  -0.436731   0.000000  -0.000000
   14  O  1 XX   -0.000000  -0.000000   0.013331   0.000000  -0.000000
   15  O  1 YY   -0.000000  -0.000000  -0.038331   0.000000  -0.000000
   16  O  1 ZZ   -0.000000  -0.000000   0.025000   0.000000  -0.000000
   17  O  1 XY   -0.000000   0.022588  -0.000000   0.000000  -0.041110
   18  O  1 XZ   -0.000000  -0.000000  -0.000000   0.000000  -0.000000
   19  O  1 YZ   -0.002782  -0.000000  -0.000000   0.055715  -0.000000
   20  O  1 XX   -0.000000  -0.000000  -0.158871   0.000000  -0.000000
   21  O  1 YY   -0.000000  -0.000000   0.220941   0.000000  -0.000000
   22  O  1 ZZ   -0.000000  -0.000000  -0.062069   0.000000  -0.000000
   23  O  1 XY   -0.000000  -0.093841  -0.000000   0.000000   0.086014
   24  O  1 XZ   -0.000000  -0.000000  -0.000000   0.000000  -0.000000
   25  O  1 YZ    0.050638  -0.000000  -0.000000  -0.718430  -0.000000
   26  O  1 XXX  -0.000000  -0.000000  -0.000000   0.000000  -0.000000
   27  O  1 YYY  -0.033496  -0.000000  -0.000000   0.002293  -0.000000
   28  O  1 ZZZ  -0.000000  -0.000000  -0.008386   0.000000  -0.000000
   29  O  1 XXY   0.015590  -0.000000  -0.000000  -0.008207  -0.000000
   30  O  1 XXZ  -0.000000  -0.000000   0.014170   0.000000  -0.000000
   31  O  1 YYX  -0.000000  -0.000000  -0.000000   0.000000  -0.000000
   32  O  1 YYZ  -0.000000  -0.000000  -0.002919   0.000000  -0.000000
   33  O  1 ZZX  -0.000000  -0.000000  -0.000000   0.000000  -0.000000
   34  O  1 ZZY   0.029349  -0.000000  -0.000000   0.005130  -0.000000
   35  O  1 XYZ  -0.000000  -0.007484  -0.000000   0.000000   0.026651
   36  O  1  S   -0.000000  -0.000000   1.273114   0.000000  -0.000000
   37  O  1  X   -0.000000  -0.000000  -0.000000   0.000000  -0.000000
   38  O  1  Y   -0.079426  -0.000000  -0.000000   2.184255  -0.000000
   39  O  1  Z   -0.000000  -0.000000  -0.093130   0.000000  -0.000000
   40  O  1 XX   -0.000000  -0.000000   0.089346   0.000000  -0.000000
   41  O  1 YY   -0.000000  -0.000000  -0.036547   0.000000  -0.000000
   42  O  1 ZZ   -0.000000  -0.000000  -0.052798   0.000000  -0.000000
   43  O  1 XY   -0.000000   1.400994  -0.000000   0.000000   2.669140
   44  O  1 XZ   -0.000000  -0.000000  -0.000000   0.000000  -0.000000
   45  O  1 YZ    2.288902  -0.000000  -0.000000  -4.906830  -0.000000
   46  O  1 XXX  -0.000000  -0.000000  -0.000000   0.000000  -0.000000
   47  O  1 YYY   0.314388  -0.000000  -0.000000  -0.037912  -0.000000
   48  O  1 ZZZ  -0.000000  -0.000000   0.072268   0.000000  -0.000000
   49  O  1 XXY  -0.075344  -0.000000  -0.000000  -0.292328  -0.000000
   50  O  1 XXZ  -0.000000  -0.000000   0.009521   0.000000  -0.000000
   51  O  1 YYX  -0.000000  -0.000000  -0.000000   0.000000  -0.000000
   52  O  1 YYZ  -0.000000  -0.000000  -0.106479   0.000000  -0.000000
   53  O  1 ZZX  -0.000000  -0.000000  -0.000000   0.000000  -0.000000
   54  O  1 ZZY  -0.346452  -0.000000  -0.000000   0.343192  -0.000000
   55  O  1 XYZ  -0.000000   0.022220  -0.000000   0.000000  -0.377382
   56  H  2  S   -0.000060  -0.000000  -0.028756   0.075868  -0.000000
   57  H  2  S   -2.206135  -0.000000  -1.875309   9.261312  -0.000000
   58  H  2  S    2.185844  -0.000000  -0.701444  10.891799  -0.000000
   59  H  2  X   -0.000000  -0.014665  -0.000000   0.000000  -0.061287
   60  H  2  Y   -0.022372  -0.000000  -0.008665   0.094560  -0.000000
   61  H  2  Z   -0.002797  -0.000000  -0.026948   0.048884  -0.000000
   62  H  2  X   -0.000000   0.129336  -0.000000   0.000000   2.314926
   63  H  2  Y   -0.382120  -0.000000  -0.588360   1.806602  -0.000000
   64  H  2  Z    0.408341  -0.000000  -0.440311   1.256997  -0.000000
   65  H  2 XX    0.013223  -0.000000   0.044646  -0.071749  -0.000000
   66  H  2 YY   -0.030916  -0.000000  -0.051781   0.075716  -0.000000
   67  H  2 ZZ    0.017693  -0.000000   0.007134  -0.003966  -0.000000
   68  H  2 XY   -0.000000   0.041999  -0.000000   0.000000   0.051855
   69  H  2 XZ   -0.000000  -0.037580  -0.000000   0.000000   0.040741
   70  H  2 YZ    0.032692  -0.000000  -0.017859   0.122835  -0.000000
   71  H  2  S   -0.031333  -0.000000  -0.016040   0.869446  -0.000000
   72  H  2  X   -0.000000  -0.354103  -0.000000   0.000000   1.226615
   73  H  2  Y    0.768621  -0.000000   0.514477   2.639507  -0.000000
   74  H  2  Z    0.108810  -0.000000  -0.285957   0.854890  -0.000000
   75  H  2 XX   -0.716900  -0.000000  -0.501659   0.367370  -0.000000
   76  H  2 YY   -0.263204  -0.000000   1.259977   0.174117  -0.000000
   77  H  2 ZZ    0.980104  -0.000000  -0.758318  -0.541487  -0.000000
   78  H  2 XY   -0.000000  -1.333051  -0.000000   0.000000   0.860229
   79  H  2 XZ   -0.000000   0.710953  -0.000000   0.000000   0.990228
   80  H  2 YZ   -0.931323  -0.000000  -0.357007  -0.521701  -0.000000
   81  H  3  S    0.000060  -0.000000  -0.028756  -0.075868  -0.000000
   82  H  3  S    2.206135  -0.000000  -1.875309  -9.261312  -0.000000
   83  H  3  S   -2.185844  -0.000000  -0.701444 -10.891799  -0.000000
   84  H  3  X   -0.000000   0.014665  -0.000000   0.000000   0.061287
   85  H  3  Y   -0.022372  -0.000000   0.008665   0.094560  -0.000000
   86  H  3  Z    0.002797  -0.000000  -0.026948  -0.048884  -0.000000
[...]
 * CALCULATING ENERGY    43 FOR NUMERIC HESSIAN *
 ************************************************
 MOVING ATOM   3 COORDINATE Z TO       -0.0772315303 A.U.
 ...... END OF ONE-ELECTRON INTEGRALS ......
 CPU     0: STEP CPU TIME=     0.00 TOTAL CPU TIME=     4650.4 (   77.5 MIN)
 TOTAL WALL CLOCK TIME=     4781.0 SECONDS, CPU UTILIZATION IS  97.27%
 TOTAL NUMBER OF NONZERO TWO-ELECTRON INTEGRALS =             7441885
        497 INTEGRAL RECORDS WERE STORED ON DISK FILE  8.
  ...... END OF TWO-ELECTRON INTEGRALS .....
 CPU     0: STEP CPU TIME=     0.46 TOTAL CPU TIME=     4650.8 (   77.5 MIN)
 TOTAL WALL CLOCK TIME=     4781.5 SECONDS, CPU UTILIZATION IS  97.27%

          --------------------------
                 RHF SCF CALCULATION
          --------------------------
     DENSITY MATRIX CONV=  1.00E-06

 ITER EX DEM     TOTAL ENERGY        E CHANGE  DENSITY CHANGE     ORB. GRAD
   1  0  0      -76.0598996307   -76.0598996307   0.002958339   0.000000000
          ---------------START SECOND ORDER SCF---------------
   2  1  0      -76.0599198434    -0.0000202127   0.000356992   0.000239852
   3  2  0      -76.0599211524    -0.0000013090   0.000201524   0.000107896
   4  3  0      -76.0599213870    -0.0000002346   0.000038866   0.000030992
   5  4  0      -76.0599214062    -0.0000000193   0.000018729   0.000009522
   6  5  0      -76.0599214075    -0.0000000013   0.000003876   0.000002465
   7  6  0      -76.0599214076    -0.0000000001   0.000001113   0.000000500
   8  7  0      -76.0599214076    -0.0000000000   0.000000449   0.000000090

 RHF HAS CONVERGED, NOW COMPUTING EXACT TOTAL FOCK MATRIX
 FOR USE DURING THE COUPLED CLUSTER CALCULATION THAT FOLLOWS.

          -----------------
          DENSITY CONVERGED
          -----------------
     TIME TO FORM FOCK OPERATORS=       0.6 SECONDS (       0.1 SEC/ITER)
     TIME TO SOLVE SCF EQUATIONS=       0.0 SECONDS (       0.0 SEC/ITER)

 FINAL RHF ENERGY IS      -76.0599214076 AFTER   8 ITERATIONS
 ...... END OF RHF CALCULATION ......
 CPU     0: STEP CPU TIME=     0.70 TOTAL CPU TIME=     4651.5 (   77.5 MIN)
 TOTAL WALL CLOCK TIME=     4782.2 SECONDS, CPU UTILIZATION IS  97.27%
 DDI: Creating Array [0] - 5565 x 348 = 1936620 words.
 DDI: Creating Array [1] - 11025 x 10 = 110250 words.
 DDI: Creating Array [2] - 87 x 40 = 3480 words.
 DDI: Creating Array [3] - 10 x 10 = 100 words.
 DDI: Creating Array [4] - 5565 x 10 = 55650 words.

     ---------------------------
     COUPLED CLUSTER CALCULATION
     ---------------------------
 CCTYP                        =CCSD(T) 
 TOTAL NUMBER OF MOS          =    92
 NUMBER OF OCCUPIED MOS       =     5
 NUMBER OF FROZEN CORE MOS    =     1
 NUMBER OF FROZEN VIRTUAL MOS =     0
 MAXIMUM CC ITERATIONS        =    30
 MAXIMUM DIIS ITERATIONS      =     5
 CONVERGENCE CRITERION FOR CC =     7
 AMPLITUDE ACCURACY THRESHOLD = 0.0E+00

     --------------------------------------------
     PARTIAL TWO ELECTRON INTEGRAL TRANSFORMATION
     --------------------------------------------

 NUMBER OF CORE MOLECULAR ORBITALS     =    1
 NUMBER OF OCCUPIED MOLECULAR ORBITALS =    5
 TOTAL NUMBER OF MOLECULAR ORBITALS    =   92
 TOTAL NUMBER OF ATOMIC ORBITALS       =  105
 THRESHOLD FOR KEEPING TRANSFORMED 2E- INTEGRALS = 1.000E-09

 -------------------------------     ------------------------------
 DISTRIBUTED DATA TRANSFORMATION     PROGRAM WRITTEN BY G. FLETCHER
 -------------------------------     ------------------------------

 THE DISTRIBUTED MEMORY REQUIRED FOR THIS STEP IS MEMDDI=         3 MWORDS
 CREATING DISTRIBUTED STORAGE FOR [VIR VIR|VIR OCC] INTEGRALS
 CREATING DISTRIBUTED STORAGE FOR [VIR OCC|VIR OCC] INTEGRALS
 CREATING DISTRIBUTED STORAGE FOR [VIR OCC|OCC OCC] INTEGRALS
 CREATING DISTRIBUTED STORAGE FOR [OCC OCC|OCC OCC] INTEGRALS
 CREATING DISTRIBUTED STORAGE FOR [VIR VIR|OCC OCC] INTEGRALS
 FOR    2 PROCESSORS, THE REPLICATED MEMORY NEEDED IS      217110 WORDS.

      DIRECT 4-INDEX TRANSFORMATION 
      SCHWARZ INEQUALITY TEST SKIPPED          0 INTEGRAL BLOCKS
 ... END OF INTEGRAL TRANSFORMATION ...
 CPU     0: STEP CPU TIME=     1.56 TOTAL CPU TIME=     4653.1 (   77.6 MIN)
 TOTAL WALL CLOCK TIME=     4783.8 SECONDS, CPU UTILIZATION IS  97.27%
 DDI: Creating Array [5] - 348 x 348 = 121104 words.
 DDI: Creating Array [6] - 348 x 348 = 121104 words.
 DDI: Creating Array [7] - 348 x 348 = 121104 words.
 DDI: Creating Array [8] - 348 x 348 = 121104 words.
 DDI: Creating Array [9] - 348 x 348 = 121104 words.
 DDI: Creating Array [10] - 7569 x 16 = 121104 words.
 DDI: Creating Array [11] - 7569 x 16 = 121104 words.

   -----------------------
   COUPLED-CLUSTER PROGRAM
   -----------------------

   -------------------------------------------------------
   P.PIECUCH, S.A.KUCHARSKI, M.WLOCH, K.KOWALSKI, M.MUSIAL
   -------------------------------------------------------

 THE FOLLOWING CALCULATIONS WILL BE PERFORMED:
                                                     CCSD   
                                                     CCSD[T]
                                                     CCSD(T)

 THE FOLLOWING ENERGY WILL BE CONSIDERED THE HIGHEST LEVEL:    CCSD(T)
 THE AVAILABLE REPLICATED MEMORY IS     3988610 WORDS.
 CONVERGENCE THRESHOLD:   1.0E-07
 MAXIMUM NUMBER OF ITERATIONS:   30

 RUNNING THE DISTRIBUTED DATA, PARALLEL CCSD/CCSD(T) PROGRAM...

 PARALLEL CODE WRITTEN BY RYAN M. OLSON AND JONATHAN L. BENTZ,
 BASED ON SERIAL CODE OF P.PIECUCH, S.A.KUCHARSKI, K.KOWALSKI, M.MUSIAL

 1A.  REPLICATED MEMORY REQUIRED FOR PROCESS-BASED CCSD IS      2502418 WORDS.
 1B.  REPLICATED MEMORY REQUIRED FOR    NODE-BASED CCSD IS      1783363 WORDS.
 THIS RUN WILL USE      1783363 WORDS OF REPLICATED MEMORY.
 2.       SHARED MEMORY REQUIRED FOR THE CCSD ITERS IS           369832 WORDS.
          SHARED MEMORY FOR THE (T) CORRECTION WILL BE          1560166 WORDS.
 3.  DISTRIBUTED MEMORY FOR THIS JOB IS MEMDDI=       4 MWORDS.

 EXPLANATION (WHAT TO PUT IN $SYSTEM INPUT):
 1. THE PROCESS-BASED PARALLEL CCSD WILL BE CHOSEN IF MWORDS=       3,
    OTHERWISE, ENTER MWORDS=       2 TO RUN THE NODE-BASED PARALLEL CCSD.
    IT IS ALLOCATED BY EVERY COMPUTE PROCESS, SO THE SECOND, SMALLER VALUE
    IS UNDOUBTEDLY THE WISER CHOICE.
 2. THIS MEMORY CLASS PRESENTLY HAS NO INPUT KEYWORD.
    IT IS ALLOCATED ONCE PER NODE, OUT OF THE OPERATING SYSTEM'S SYSV MEMORY.
 3. THIS VALUE INCLUDES THE INTEGRAL TRANSFORMATION'S DISTRIBUTED MEMORY,
    SO MEMDDI=      4 SHOULD BE ENOUGH FOR THE ENTIRE JOB.
    IT IS ALLOCATED ONLY ONCE, FOR THE WHOLE RUN, SPREAD ACROSS ALL NODES.

 THIS JOB IS USING   1 NODES, WITH  2 PROCESSES/NODE,
 USING INPUT MEMORY VALUES MWORDS=       4 AND MEMDDI=       8
 MOST EFFICIENT VALUES ARE MWORDS=       2 AND MEMDDI=       4
 THE INPUT VALUES MEANS EACH SMP NODE WILL ALLOCATE      73 MBYTES OF MEMORY.

 INITIALIZING INTEGRALS FOR CCSD
 DDI: Creating Array [12] - 11025 x 10 = 110250 words.
 RUNNING PROCESS-BASED CCSD ITERATIONS
 ITER:  1   CCSD    CORR. ENERGY:  -0.2674666941   CONV.:  2.4649E-03

 ITER  CPU TIME: TOTAL=     6.6  FORMULAE IN AO,MO BASIS=     6.4     0.2
 ITER WALL TIME: TOTAL=     6.7  FORMULAE IN AO,MO BASIS=     6.5     0.2
 IT IS BENEFICIAL TO ADD MORE PROCESSORS IF THE SCALABLE AO CONTRIBUTION'S TIME
 IS CONSIDERABLY LARGER THAN THE LESS SCALABLE MO CONTRIBUTION'S TIME.

 ITER:  2   CCSD    CORR. ENERGY:  -0.2714730746   CONV.: -1.0333E-03
 ITER:  3   CCSD    CORR. ENERGY:  -0.2719188876   CONV.: -2.7626E-04
 ITER:  4   CCSD    CORR. ENERGY:  -0.2721966760   CONV.: -9.5561E-03
 ITER:  5   CCSD    CORR. ENERGY:  -0.2722052389   CONV.: -9.5081E-03
 ITER:  6   CCSD    CORR. ENERGY:  -0.2723610006   CONV.: -8.6153E-03
 ITER:  7   CCSD    CORR. ENERGY:  -0.2730126366   CONV.: -4.3148E-03
 ITER:  8   CCSD    CORR. ENERGY:  -0.2736009697   CONV.: -4.2025E-04
 ITER:  9   CCSD    CORR. ENERGY:  -0.2736519896   CONV.: -1.2615E-05
 ITER: 10   CCSD    CORR. ENERGY:  -0.2736534355   CONV.: -6.1584E-06
 ITER: 11   CCSD    CORR. ENERGY:  -0.2736534853   CONV.: -2.3284E-06
 ITER: 12   CCSD    CORR. ENERGY:  -0.2736535729   CONV.: -9.7610E-07
 ITER: 13   CCSD    CORR. ENERGY:  -0.2736535965   CONV.:  3.7651E-07
 ITER: 14   CCSD    CORR. ENERGY:  -0.2736535975   CONV.: -8.3600E-08
 ITER: 15   CCSD    CORR. ENERGY:  -0.2736535975   CONV.: -8.3600E-08

     THE    CCSD     ITERATIONS HAVE CONVERGED

    MBPT(2) CORRELATION ENERGY:  -0.2690259765
    CCSD    CORRELATION ENERGY:  -0.2736535975

 T1 DIAGNOSTIC        =     0.01012348
 NORM OF THE T1 VECTOR=     0.02863353
 NORM OF THE T2 VECTOR=     0.23449031

 THE FIVE LARGEST T1 AMPLITUDES ARE:
 T1 AMPLITUDE IS -0.015246 FOR I=   5 -> A=   9
 T1 AMPLITUDE IS -0.013129 FOR I=   5 -> A=  15
 T1 AMPLITUDE IS -0.008525 FOR I=   4 -> A=   8
 T1 AMPLITUDE IS  0.007788 FOR I=   4 -> A=  16
 T1 AMPLITUDE IS -0.005476 FOR I=   3 -> A=  45

 THE FIVE LARGEST SPIN-UNIQUE T2 AMPLITUDES ARE:
 T2 AMPLITUDE IS -0.021937 FOR I,J=   3   3 -> A,B=  19  19
 T2 AMPLITUDE IS -0.019820 FOR I,J=   4   4 -> A,B=  27  27
 T2 AMPLITUDE IS -0.015791 FOR I,J=   5   5 -> A,B=  35  35
 T2 AMPLITUDE IS  0.015621 FOR I,J=   3   3 -> A,B=  19  34
 T2 AMPLITUDE IS -0.014858 FOR I,J=   3   3 -> A,B=  20  20
 PRINTED T2(I-ALPHA,J-BETA -> A-ALPHA,B-BETA) VALUES
 EQUAL   T2(J-ALPHA,I-BETA -> B-ALPHA,A-BETA) AMPLITUDES.

 ....... DONE WITH CC AMPLITUDE ITERATIONS .......
 CPU     0: STEP CPU TIME=    74.88 TOTAL CPU TIME=     4727.9 (   78.8 MIN)
 TOTAL WALL CLOCK TIME=     4860.0 SECONDS, CPU UTILIZATION IS  97.28%

 RUNNING THE DISTRIBUTED DATA, PARALLEL TRIPLES CORRECTION...

   REPLICATED MEMORY REQUIRED FOR TRIPLES IS         8265 WORDS.
       SHARED MEMORY REQUIRED FOR TRIPLES IS      1560166 WORDS.
  DISTRIBUTED MEMORY IS ALREADY ALLOCATED ABOVE.


                      SUMMARY OF RESULTS

      REFERENCE ENERGY:      -76.0599214076
        MBPT(2) ENERGY:      -76.3289473841   CORR.E=  -0.2690259765
        CCSD    ENERGY:      -76.3335750051   CORR.E=  -0.2736535975
        CCSD[T] ENERGY:      -76.3426089601   CORR.E=  -0.2826875524
        CCSD(T) ENERGY:      -76.3422824103   CORR.E=  -0.2823610027

 THE FOLLOWING METHOD AND ENERGY WILL BE CONSIDERED THE HIGHEST LEVEL RESULT:
 COUPLED-CLUSTER ENERGY E(   CCSD(T)) =      -76.3422824103

 ..... DONE WITH CC NON-ITERATIVE TRIPLES CORRECTIONS .....
 CPU     0: STEP CPU TIME=     1.32 TOTAL CPU TIME=     4729.3 (   78.8 MIN)
 TOTAL WALL CLOCK TIME=     4861.3 SECONDS, CPU UTILIZATION IS  97.28%
 ...... END OF NUMERICAL HESSIAN CALCULATION ......

          ---------------
          ENERGY GRADIENT
          ---------------

 UNITS ARE HARTREE/BOHR    E'X               E'Y               E'Z 
    1 O                0.000000000       0.000000000       0.000009180
    2 H                0.000000000       0.000034669      -0.000006469
    3 H                0.000000000      -0.000034669      -0.000006469

          -------------------------------
          CARTESIAN FORCE CONSTANT MATRIX
          -------------------------------

                                   1                          2
                               O                          H         
                          X        Y        Z        X        Y        Z
  1   O            X 0.000075 0.000000 0.000000-0.000005 0.000000 0.000000
                   Y 0.000000 0.676431 0.000000 0.000000-0.338219-0.263428
                   Z 0.000000 0.000000 0.455457 0.000000-0.201131-0.227730
  2   H            X-0.000005 0.000000 0.000000 0.000034-0.000000-0.000000
                   Y 0.000000-0.338219-0.201131-0.000000 0.369450 0.232278
                   Z 0.000000-0.263428-0.227730-0.000000 0.232278 0.216420
  3   H            X-0.000005 0.000000 0.000000 0.000003 0.000000 0.000000
                   Y 0.000000-0.338219 0.201131 0.000000-0.031250 0.031150
                   Z 0.000000 0.263428-0.227730 0.000000-0.031150 0.011311

                                   3
                               H         
                          X        Y        Z
  3   H            X 0.000034 0.000000 0.000000
                   Y 0.000000 0.369450-0.232278
                   Z 0.000000-0.232278 0.216420

          --------------------------------------------------------
          NORMAL COORDINATE ANALYSIS IN THE HARMONIC APPROXIMATION
          --------------------------------------------------------

          ATOMIC WEIGHTS (AMU)

    1     O                15.99491
    2     H                 1.00782
    3     H                 1.00782

 MODES 1 TO 6 ARE TAKEN AS ROTATIONS AND TRANSLATIONS.

 ANALYZING SYMMETRY OF NORMAL MODES...

 --- SYMMETRY FOR NORMAL MODES ---
 INCLUDING TRANSLATION AND ROTATION
    3*A1     1*A2     2*B1     3*B2  
 EXCLUDING TRANSLATION AND ROTATION (SAYVETZ < 0.01)
    2*A1     0*A2     0*B1     1*B2  

     FREQUENCIES IN CM**-1, IR INTENSITIES IN DEBYE**2/AMU-ANGSTROM**2,
     REDUCED MASSES IN AMU.

                          1           2           3           4           5
       FREQUENCY:        36.24        7.56        1.40       11.05       28.35  
        SYMMETRY:         B2          B2          A1          B1          A2  
    REDUCED MASS:      1.02400     6.85780     6.00368    15.34354     1.00782

  1   O            X  0.00000000 -0.00000000 -0.00000000  0.24968262 -0.00000000
                   Y -0.03246373  0.23857560 -0.00000000  0.00000000  0.00000000
                   Z  0.00000000  0.00000000  0.23563378  0.00000000 -0.00000000
  2   H            X  0.00000000 -0.00000000  0.00000000  0.03763384  0.70435636
                   Y  0.40862846  0.20686085  0.00000463  0.00000000  0.00000000
                   Z -0.56637234  0.04073193  0.23562819  0.00000000 -0.00000000
  3   H            X -0.00000000  0.00000000 -0.00000000  0.03763384 -0.70435636
                   Y  0.40862846  0.20686085 -0.00000463  0.00000000  0.00000000
                   Z  0.56637234 -0.04073193  0.23562819  0.00000000 -0.00000000

 TRANS. SAYVETZ    X  0.00000000 -0.00000000 -0.00000000  4.06950762  0.00000000
                   Y  0.30439755  4.23295430 -0.00000000  0.00000000  0.00000000
                   Z  0.00000000  0.00000000  4.24388501  0.00000000 -0.00000000
               TOTAL  0.30439755  4.23295430  4.24388501  4.06950762  0.00000000

   ROT. SAYVETZ    X  2.51830883 -0.18109504  0.00000000 -0.00000000 -0.00000000
                   Y -0.00000000 -0.00000000  0.00000000  0.42382503 -0.00000000
                   Z  0.00000000 -0.00000000  0.00000000  0.00000000  2.03543474
               TOTAL  2.51830883  0.18109504  0.00000000  0.42382503  2.03543474

                          6           7           8           9
       FREQUENCY:        31.38     1645.57     3810.73     3919.71  
        SYMMETRY:         B1          A1          A1          B2  
    REDUCED MASS:      1.01053     1.08277     1.04508     1.08154

  1   O            X -0.01335965  0.00000000 -0.00000000  0.00000000
                   Y -0.00000000 -0.00000000 -0.00000000 -0.06743648
                   Z  0.00000000 -0.06795820  0.04876777 -0.00000000
  2   H            X  0.70335025  0.00000000  0.00000000 -0.00000000
                   Y -0.00000000 -0.41064843 -0.57226370  0.53511610
                   Z  0.00000000  0.53929373 -0.38698773  0.41675071
  3   H            X  0.70335025 -0.00000000 -0.00000000  0.00000000
                   Y -0.00000000  0.41064843  0.57226370  0.53511610
                   Z  0.00000000  0.53929373 -0.38698773 -0.41675071

 TRANS. SAYVETZ    X  1.20402148 -0.00000000 -0.00000000  0.00000000
                   Y -0.00000000 -0.00000000  0.00000000 -0.00003371
                   Z  0.00000000  0.00004204  0.00000420  0.00000000
               TOTAL  1.20402148  0.00004204  0.00000420  0.00003371

   ROT. SAYVETZ    X  0.00000000 -0.00000000 -0.00000000  0.00001301
                   Y -1.43249870  0.00000000  0.00000000 -0.00000000
                   Z -0.00000000  0.00000000  0.00000000 -0.00000000
               TOTAL  1.43249870  0.00000000  0.00000000  0.00001301

 REFERENCE ON SAYVETZ CONDITIONS - A. SAYVETZ, J.CHEM.PHYS., 7, 383-389(1939).

 NOTE - THE MODES J,K ARE ORTHONORMALIZED ACCORDING TO
 SUM ON I   M(I) * (X(I,J)*X(I,K) + Y(I,J)*Y(I,K) + Z(I,J)*Z(I,K)) = DELTA(J,K)

     -------------------------------
     THERMOCHEMISTRY AT T=  298.15 K
     -------------------------------

 USING IDEAL GAS, RIGID ROTOR, HARMONIC NORMAL MODE APPROXIMATIONS.
 P=  1.01325E+05 PASCAL.
 ALL FREQUENCIES ARE SCALED BY   1.00000
 THE MOMENTS OF INERTIA ARE (IN AMU*BOHR**2)
      2.23168     4.14299     6.37467
 THE ROTATIONAL SYMMETRY NUMBER IS  2.0
 THE ROTATIONAL CONSTANTS ARE (IN GHZ)
    807.95100   435.21376   282.85180
 THE HARMONIC ZERO POINT ENERGY IS (SCALED BY   1.000)
        0.021360 HARTREE/MOLECULE     4688.001629 CM**-1/MOLECULE 
       13.403683 KCAL/MOL               56.081008 KJ/MOL

               Q               LN Q
 ELEC.     1.00000E+00       0.000000
 TRANS.    3.00431E+06      14.915558
 ROT.      4.34524E+01       3.771666
 VIB.      1.00036E+00       0.000356
 TOT.      1.30591E+08      18.687580

              E         H         G         CV        CP        S
           KJ/MOL    KJ/MOL    KJ/MOL   J/MOL-K   J/MOL-K   J/MOL-K
 ELEC.      0.000     0.000     0.000     0.000     0.000     0.000
 TRANS.     3.718     6.197   -36.975    12.472    20.786   144.800
 ROT.       3.718     3.718    -9.350    12.472    12.472    43.831
 VIB.      56.088    56.088    56.080     0.187     0.187     0.026
 TOTAL     63.525    66.004     9.756    25.130    33.444   188.657
 VIB. THERMAL CORRECTION E(T)-E(0) = H(T)-H(0) =     7.008 J/MOL

              E         H         G         CV        CP        S
         KCAL/MOL  KCAL/MOL  KCAL/MOL CAL/MOL-K CAL/MOL-K CAL/MOL-K
 ELEC.      0.000     0.000     0.000     0.000     0.000     0.000
 TRANS.     0.889     1.481    -8.837     2.981     4.968    34.608
 ROT.       0.889     0.889    -2.235     2.981     2.981    10.476
 VIB.      13.405    13.405    13.403     0.045     0.045     0.006
 TOTAL     15.183    15.775     2.332     6.006     7.993    45.090
 VIB. THERMAL CORRECTION E(T)-E(0) = H(T)-H(0) =     1.675 CAL/MOL
 ......END OF NORMAL COORDINATE ANALYSIS......
 CPU     0: STEP CPU TIME=     0.00 TOTAL CPU TIME=     4729.3 (   78.8 MIN)
 TOTAL WALL CLOCK TIME=     4861.3 SECONDS, CPU UTILIZATION IS  97.28%
              2513808  WORDS OF DYNAMIC MEMORY USED
 EXECUTION OF GAMESS TERMINATED NORMALLY Tue Mar  8 01:26:05 2016
 DDI: 12519952 bytes (11.9 MB / 1 MWords) used by master data server.

 ----------------------------------------
 CPU timing information for all processes
 ========================================
 0: 4700.495 + 28.787 = 4729.282
 1: 4678.587 + 22.156 = 4700.743
 ----------------------------------------
 ddikick.x: exited gracefully.
----- accounting info -----
Files used on the master node Clevo were:
-rw-r--r-- 1 sagar sagar   160940 Mar  8 01:26 /tmp/H2O_RHF_CCSDT_augccpVTZ_hessian.dat
-rw-r--r-- 1 sagar sagar      296 Mar  8 00:05 /tmp/H2O_RHF_CCSDT_augccpVTZ_hessian.F05
-rw-r--r-- 1 sagar sagar 45544048 Mar  8 01:24 /tmp/H2O_RHF_CCSDT_augccpVTZ_hessian.F08
-rw-r--r-- 1 sagar sagar 43923904 Mar  8 01:24 /tmp/H2O_RHF_CCSDT_augccpVTZ_hessian.F08.001
-rw-r--r-- 1 sagar sagar    34232 Mar  8 01:24 /tmp/H2O_RHF_CCSDT_augccpVTZ_hessian.F09
-rw-r--r-- 1 sagar sagar  2781200 Mar  8 01:26 /tmp/H2O_RHF_CCSDT_augccpVTZ_hessian.F10
-rw-r--r-- 1 sagar sagar  2202112 Mar  8 01:26 /tmp/H2O_RHF_CCSDT_augccpVTZ_hessian.F70
-rw-r--r-- 1 sagar sagar  9716160 Mar  8 01:26 /tmp/H2O_RHF_CCSDT_augccpVTZ_hessian.F71
-rw-r--r-- 1 sagar sagar    11136 Mar  8 01:26 /tmp/H2O_RHF_CCSDT_augccpVTZ_hessian.F73
-rw-r--r-- 1 sagar sagar  1937664 Mar  8 01:26 /tmp/H2O_RHF_CCSDT_augccpVTZ_hessian.F74
-rw-r--r-- 1 sagar sagar     1745 Mar  8 01:26 /tmp/H2O_RHF_CCSDT_augccpVTZ_hessian.rst
Tue Mar  8 01:26:08 WET 2016
0.071u 0.067s 1:21:04.47 0.0%	0+0k 0+24io 0pf+0w
