----- GAMESS execution script 'rungms' -----
This job is running on host Clevo
under operating system Linux at Sun Mar 6 23:44:47 WET 2016
Available scratch disk space (Kbyte units) at beginning of the job is
Filesystem                                             1K-blocks     Used Available Use% Mounted on
/dev/disk/by-uuid/c2905ecd-da6a-4deb-abcc-9980c215dfc9  34319120 18791916  13760804  58% /
GAMESS temporary binary files will be written to /tmp
GAMESS supplementary output files will be written to .
Copying input file H2O_RHF_MP2_augccpVTZ_geometry.inp to your run's scratch directory...

 Distributed Data Interface kickoff program.
 Initiating 2 compute processes on 1 nodes to run the following command:
 /home/sagar/gamess/gamess.01.x H2O_RHF_MP2_augccpVTZ_geometry 

          ******************************************************
          *         GAMESS VERSION =  5 DEC 2014 (R1)          *
          *             FROM IOWA STATE UNIVERSITY             *
          * M.W.SCHMIDT, K.K.BALDRIDGE, J.A.BOATZ, S.T.ELBERT, *
          *   M.S.GORDON, J.H.JENSEN, S.KOSEKI, N.MATSUNAGA,   *
          *          K.A.NGUYEN, S.J.SU, T.L.WINDUS,           *
          *       TOGETHER WITH M.DUPUIS, J.A.MONTGOMERY       *
          *         J.COMPUT.CHEM.  14, 1347-1363(1993)        *
          **************** 64 BIT LINUX VERSION ****************

  SINCE 1993, STUDENTS AND POSTDOCS WORKING AT IOWA STATE UNIVERSITY
  AND ALSO IN THEIR VARIOUS JOBS AFTER LEAVING ISU HAVE MADE IMPORTANT
  CONTRIBUTIONS TO THE CODE:
     IVANA ADAMOVIC, CHRISTINE AIKENS, YURI ALEXEEV, POOJA ARORA,
     ANDREY ASADCHEV, ROB BELL, PRADIPTA BANDYOPADHYAY, JONATHAN BENTZ,
     BRETT BODE, KURT BRORSEN, CALEB CARLIN, GALINA CHABAN, WEI CHEN,
     CHEOL HO CHOI, PAUL DAY, ALBERT DEFUSCO, NUWAN DESILVA, TIM DUDLEY,
     DMITRI FEDOROV, GRAHAM FLETCHER, MARK FREITAG, KURT GLAESEMANN,
     DAN KEMP, GRANT MERRILL, NORIYUKI MINEZAWA, JONATHAN MULLIN,
     TAKESHI NAGATA, SEAN NEDD, HEATHER NETZLOFF, BOSILJKA NJEGIC, RYAN OLSON,
     MIKE PAK, SPENCER PRUITT, LUKE ROSKOP, JIM SHOEMAKER, LYUDMILA SLIPCHENKO,
     TONY SMITH, SAROM SOK, JIE SONG, TETSUYA TAKETSUGU, SIMON WEBB,
     PENG XU, SOOHAENG YOO, FEDERICO ZAHARIEV

  ADDITIONAL CODE HAS BEEN PROVIDED BY COLLABORATORS IN OTHER GROUPS:
     IOWA STATE UNIVERSITY:
          JOE IVANIC, AARON WEST, LAIMUTIS BYTAUTAS, KLAUS RUEDENBERG
     UNIVERSITY OF TOKYO: KIMIHIKO HIRAO, TAKAHITO NAKAJIMA,
          TAKAO TSUNEDA, MUNEAKI KAMIYA, SUSUMU YANAGISAWA,
          KIYOSHI YAGI, MAHITO CHIBA, SEIKEN TOKURA, NAOAKI KAWAKAMI
     UNIVERSITY OF AARHUS: FRANK JENSEN
     UNIVERSITY OF IOWA: VISVALDAS KAIRYS, HUI LI
     NATIONAL INST. OF STANDARDS AND TECHNOLOGY: WALT STEVENS, DAVID GARMER
     UNIVERSITY OF PISA: BENEDETTA MENNUCCI, JACOPO TOMASI
     UNIVERSITY OF MEMPHIS: HENRY KURTZ, PRAKASHAN KORAMBATH
     UNIVERSITY OF ALBERTA: TOBY ZENG, MARIUSZ KLOBUKOWSKI
     UNIVERSITY OF NEW ENGLAND: MARK SPACKMAN
     MIE UNIVERSITY: HIROAKI UMEDA
     NAT. INST. OF ADVANCED INDUSTRIAL SCIENCE AND TECHNOLOGY: KAZUO KITAURA
     MICHIGAN STATE UNIVERSITY:
          KAROL KOWALSKI, MARTA WLOCH, JEFFREY GOUR, JESSE LUTZ,
          WEI LI, PIOTR PIECUCH
     UNIVERSITY OF SILESIA: MONIKA MUSIAL, STANISLAW KUCHARSKI
     FACULTES UNIVERSITAIRES NOTRE-DAME DE LA PAIX:
          OLIVIER QUINET, BENOIT CHAMPAGNE
     UNIVERSITY OF CALIFORNIA - SANTA BARBARA: BERNARD KIRTMAN
     INSTITUTE FOR MOLECULAR SCIENCE:
          KAZUYA ISHIMURA, MICHIO KATOUDA, AND SHIGERU NAGASE
     UNIVERSITY OF NOTRE DAME: ANNA POMOGAEVA, DAN CHIPMAN
     KYUSHU UNIVERSITY:
          HARUYUKI NAKANO,
          FENG LONG GU, JACEK KORCHOWIEC, MARCIN MAKOWSKI, AND YURIKO AOKI,
          HIROTOSHI MORI AND EISAKU MIYOSHI
     PENNSYLVANIA STATE UNIVERSITY:
          TZVETELIN IORDANOV, CHET SWALINA, JONATHAN SKONE,
          SHARON HAMMES-SCHIFFER
     WASEDA UNIVERSITY:
          MASATO KOBAYASHI, TOMOKO AKAMA, TSUGUKI TOUMA,
          TAKESHI YOSHIKAWA, YASUHIRO IKABATA, HIROMI NAKAI
     NANJING UNIVERSITY: SHUHUA LI
     UNIVERSITY OF NEBRASKA:
          PEIFENG SU, DEJUN SI, NANDUN THELLAMUREGE, YALI WANG, HUI LI
     UNIVERSITY OF ZURICH: ROBERTO PEVERATI, KIM BALDRIDGE
     N. COPERNICUS UNIVERSITY AND JACKSON STATE UNIVERSITY:
          MARIA BARYSZ
     UNIVERSITY OF COPENHAGEN: CASPER STEINMANN
     TOKYO INSTITUTE OF TECHNOLOGY: HIROYA NAKATA
     NAGOYA UNIVERSITY: YOSHIO NISHIMOTO, STEPHAN IRLE


 PARALLEL VERSION RUNNING ON        2 PROCESSORS IN        1 NODES.

 EXECUTION OF GAMESS BEGUN Sun Mar  6 23:44:47 2016

            ECHO OF THE FIRST FEW INPUT CARDS -
 INPUT CARD> $CONTRL SCFTYP=RHF MPLEVL=2 RUNTYP=OPTIMIZE ISPHER=1 $END                      
 INPUT CARD> $STATPT OPTTOL=1E-12 NSTEP=1000 $END                                           
 INPUT CARD> $BASIS GBASIS=ACCT $END                                                        
 INPUT CARD> $DATA                                                                          
 INPUT CARD>H2O                                                                             
 INPUT CARD>C1                                                                              
 INPUT CARD> H 1 0.0 -1.0 0.0                                                               
 INPUT CARD> H 1 0.0 1.0 0.0                                                                
 INPUT CARD> O 8 0.0 0.0 0.5                                                                
 INPUT CARD> $END                                                                           
    1000000 WORDS OF MEMORY AVAILABLE

     BASIS OPTIONS
     -------------
     GBASIS=ACCT         IGAUSS=       0      POLAR=NONE    
     NDFUNC=       0     NFFUNC=       0     DIFFSP=       F
     NPFUNC=       0      DIFFS=       F     BASNAM=        


     RUN TITLE
     ---------
 H2O                                                                             

 THE POINT GROUP OF THE MOLECULE IS C1      
 THE ORDER OF THE PRINCIPAL AXIS IS     0

 ATOM      ATOMIC                      COORDINATES (BOHR)
           CHARGE         X                   Y                   Z
 H           1.0     0.0000000000       -1.8897259877        0.0000000000
 H           1.0     0.0000000000        1.8897259877        0.0000000000
 O           8.0     0.0000000000        0.0000000000        0.9448629939

          INTERNUCLEAR DISTANCES (ANGS.)
          ------------------------------

                1 H          2 H          3 O     

   1 H       0.0000000    2.0000000 *  1.1180340 *
   2 H       2.0000000 *  0.0000000    1.1180340 *
   3 O       1.1180340 *  1.1180340 *  0.0000000  

  * ... LESS THAN  3.000


     ATOMIC BASIS SET
     ----------------
 THE CONTRACTED PRIMITIVE FUNCTIONS HAVE BEEN UNNORMALIZED
 THE CONTRACTED BASIS FUNCTIONS ARE NOW NORMALIZED TO UNITY

  SHELL TYPE  PRIMITIVE        EXPONENT          CONTRACTION COEFFICIENT(S)

 H         

      1   S       1            33.8700000    0.025494863235
      1   S       2             5.0950000    0.190362765893
      1   S       3             1.1590000    0.852162022245

      2   S       4             0.3258000    1.000000000000

      3   S       5             0.1027000    1.000000000000

      4   P       6             1.4070000    1.000000000000

      5   P       7             0.3880000    1.000000000000

      6   D       8             1.0570000    1.000000000000

      7   S       9             0.0252600    1.000000000000

      8   P      10             0.1020000    1.000000000000

      9   D      11             0.2470000    1.000000000000

 H         

     10   S      12            33.8700000    0.025494863235
     10   S      13             5.0950000    0.190362765893
     10   S      14             1.1590000    0.852162022245

     11   S      15             0.3258000    1.000000000000

     12   S      16             0.1027000    1.000000000000

     13   P      17             1.4070000    1.000000000000

     14   P      18             0.3880000    1.000000000000

     15   D      19             1.0570000    1.000000000000

     16   S      20             0.0252600    1.000000000000

     17   P      21             0.1020000    1.000000000000

     18   D      22             0.2470000    1.000000000000

 O         

     19   S      23         15330.0000000    0.000520198307
     19   S      24          2299.0000000    0.004023344781
     19   S      25           522.4000000    0.020729083329
     19   S      26           147.3000000    0.081082327080
     19   S      27            47.5500000    0.236226352118
     19   S      28            16.7600000    0.443518209420
     19   S      29             6.2070000    0.358670588689
     19   S      30             0.6882000   -0.008349797237

     20   S      31         15330.0000000   -0.000197236012
     20   S      32          2299.0000000   -0.001535010700
     20   S      33           522.4000000   -0.007951183914
     20   S      34           147.3000000   -0.032113452892
     20   S      35            47.5500000   -0.100269643049
     20   S      36            16.7600000   -0.234047111838
     20   S      37             6.2070000   -0.301410927756
     20   S      38             0.6882000    1.034919649508

     21   S      39             1.7520000    1.000000000000

     22   S      40             0.2384000    1.000000000000

     23   P      41            34.4600000    0.041163489568
     23   P      42             7.7490000    0.257762835858
     23   P      43             2.2800000    0.802419274427

     24   P      44             0.7156000    1.000000000000

     25   P      45             0.2140000    1.000000000000

     26   D      46             2.3140000    1.000000000000

     27   D      47             0.6450000    1.000000000000

     28   F      48             1.4280000    1.000000000000

     29   S      49             0.0737600    1.000000000000

     30   P      50             0.0597400    1.000000000000

     31   D      51             0.2140000    1.000000000000

     32   F      52             0.5000000    1.000000000000

 TOTAL NUMBER OF BASIS SET SHELLS             =   32
 NUMBER OF CARTESIAN GAUSSIAN BASIS FUNCTIONS =  105
 NOTE: THIS RUN WILL RESTRICT THE MO VARIATION SPACE TO SPHERICAL HARMONICS.
 THE NUMBER OF ORBITALS KEPT IN THE VARIATIONAL SPACE WILL BE PRINTED LATER.
 NUMBER OF ELECTRONS                          =   10
 CHARGE OF MOLECULE                           =    0
 SPIN MULTIPLICITY                            =    1
 NUMBER OF OCCUPIED ORBITALS (ALPHA)          =    5
 NUMBER OF OCCUPIED ORBITALS (BETA )          =    5
 TOTAL NUMBER OF ATOMS                        =    3
 THE NUCLEAR REPULSION ENERGY IS        7.8375569539

     $CONTRL OPTIONS
     ---------------
 SCFTYP=RHF          RUNTYP=OPTIMIZE     EXETYP=RUN     
 MPLEVL=       2     CITYP =NONE         CCTYP =NONE         VBTYP =NONE    
 DFTTYP=NONE         TDDFT =NONE    
 MULT  =       1     ICHARG=       0     NZVAR =       0     COORD =UNIQUE  
 PP    =NONE         RELWFN=NONE         LOCAL =NONE         NUMGRD=       F
 ISPHER=       1     NOSYM =       0     MAXIT =      30     UNITS =ANGS    
 PLTORB=       F     MOLPLT=       F     AIMPAC=       F     FRIEND=        
 NPRINT=       7     IREST =       0     GEOM  =INPUT   
 NORMF =       0     NORMP =       0     ITOL  =      20     ICUT  =       9
 INTTYP=BEST         GRDTYP=BEST         QMTTOL= 1.0E-06

     $SYSTEM OPTIONS
     ---------------
  REPLICATED MEMORY=     1000000 WORDS (ON EVERY NODE).
 DISTRIBUTED MEMDDI=           0 MILLION WORDS IN AGGREGATE,
 MEMDDI DISTRIBUTED OVER   2 PROCESSORS IS           0 WORDS/PROCESSOR.
 TOTAL MEMORY REQUESTED ON EACH PROCESSOR=     1000000 WORDS.
 TIMLIM=      525600.00 MINUTES, OR     365.0 DAYS.
 PARALL= T  BALTYP=  DLB     KDIAG=    0  COREFL= F
 MXSEQ2=     300 MXSEQ3=     150  mem10=         0

          ----------------
          PROPERTIES INPUT
          ----------------

     MOMENTS            FIELD           POTENTIAL          DENSITY
 IEMOM =       1   IEFLD =       0   IEPOT =       0   IEDEN =       0
 WHERE =COMASS     WHERE =NUCLEI     WHERE =NUCLEI     WHERE =NUCLEI  
 OUTPUT=BOTH       OUTPUT=BOTH       OUTPUT=BOTH       OUTPUT=BOTH    
 IEMINT=       0   IEFINT=       0                     IEDINT=       0
                                                       MORB  =       0
          EXTRAPOLATION IN EFFECT
          SOSCF IN EFFECT
 ORBITAL PRINTING OPTION: NPREO=     1   105     2     1

     -------------------------------
     INTEGRAL TRANSFORMATION OPTIONS
     -------------------------------
     NWORD  =            0
     CUTOFF = 1.0E-09     MPTRAN =       0
     DIRTRF =       F     AOINTS =DUP     

          ----------------------
          INTEGRAL INPUT OPTIONS
          ----------------------
 NOPK  =       1 NORDER=       0 SCHWRZ=       F

          -----------------------
          MP2 CONTROL INFORMATION
          -----------------------
          NACORE =        1  NBCORE =        1
          LMOMP2 =        F  AOINTS = DUP     
          METHOD =        2  NWORD  =               0
          MP2PRP =        F  OSPT   = NONE    
          CUTOFF = 1.00E-09  CPHFBS = BASISAO 
          CODE   = DDI     

          NUMBER OF CORE -A-  ORBITALS =     1
          NUMBER OF CORE -B-  ORBITALS =     1
          NUMBER OF OCC. -A-  ORBITALS =     5
          NUMBER OF OCC. -B-  ORBITALS =     5
          NUMBER OF MOLECULAR ORBITALS =   105
          NUMBER OF   BASIS  FUNCTIONS =   105


     ------------------------------------------
     THE POINT GROUP IS C1 , NAXIS= 0, ORDER= 1
     ------------------------------------------

 -- VARIATIONAL SPACE WILL BE RESTRICTED TO PURE SPHERICAL HARMONICS ONLY --
 AFTER EXCLUDING CONTAMINANT COMBINATIONS FROM THE CARTESIAN GAUSSIAN BASIS
 SET, THE NUMBER OF SPHERICAL HARMONICS KEPT IN THE VARIATION SPACE IS   92

     DIMENSIONS OF THE SYMMETRY SUBSPACES ARE
 A   =   92

 ..... DONE SETTING UP THE RUN .....
 CPU     0: STEP CPU TIME=     0.02 TOTAL CPU TIME=        0.0 (    0.0 MIN)
 TOTAL WALL CLOCK TIME=        0.0 SECONDS, CPU UTILIZATION IS  66.67%


          -----------------------------
          STATIONARY POINT LOCATION RUN
          -----------------------------

 OBTAINING INITIAL HESSIAN, HESS=GUESS   
 CARTESIAN COORDINATE OPTIMIZATION USING BADGER'S RULE FORCE CONSTANT GUESS

          PARAMETERS CONTROLLING GEOMETRY SEARCH ARE
          METHOD =QA                  UPHESS =BFGS    
          NNEG   =         0          NFRZ   =         0
          NSTEP  =      1000          IFOLOW =         1
          HESS   =GUESS               RESTAR =         F
          IHREP  =         0          HSSEND =         F
          NPRT   =         0          NPUN   =         0
          OPTTOL = 1.000E-12          RMIN   = 1.500E-03
          RMAX   = 1.000E-01          RLIM   = 7.000E-02
          DXMAX  = 3.000E-01          PURIFY =         F
          MOVIE  =         F          TRUPD  =         T
          TRMAX  = 5.000E-01          TRMIN  = 5.000E-02
          ITBMAT =         5          STPT   =         F
          STSTEP = 1.000E-02          PROJCT=          T

 BEGINNING GEOMETRY SEARCH POINT NSERCH=   0 ...

 COORDINATES OF ALL ATOMS ARE (ANGS)
   ATOM   CHARGE       X              Y              Z
 ------------------------------------------------------------
 H           1.0   0.0000000000  -1.0000000000   0.0000000000
 H           1.0   0.0000000000   1.0000000000   0.0000000000
 O           8.0   0.0000000000   0.0000000000   0.5000000000

          ********************
          1 ELECTRON INTEGRALS
          ********************
 ...... END OF ONE-ELECTRON INTEGRALS ......
 CPU     0: STEP CPU TIME=     0.01 TOTAL CPU TIME=        0.0 (    0.0 MIN)
 TOTAL WALL CLOCK TIME=        0.0 SECONDS, CPU UTILIZATION IS 100.00%

          -------------
          GUESS OPTIONS
          -------------
          GUESS =HUCKEL            NORB  =       0          NORDER=       0
          MIX   =       F          PRTMO =       F          PUNMO =       F
          TOLZ  = 1.0E-08          TOLE  = 1.0E-05
          SYMDEN=       F          PURIFY=       F

 INITIAL GUESS ORBITALS GENERATED BY HUCKEL   ROUTINE.
 HUCKEL GUESS REQUIRES     81459 WORDS.

 STATISTICS FOR GENERATION OF SYMMETRY ORBITAL -Q- MATRIX
 NUMBER OF CARTESIAN ATOMIC ORBITALS=        105
 NUMBER OF SPHERICAL CONTAMINANTS DROPPED=    13
 NUMBER OF LINEARLY DEPENDENT MOS DROPPED=     0
 TOTAL NUMBER OF MOS IN VARIATION SPACE=      92

 SYMMETRIES FOR INITIAL GUESS ORBITALS FOLLOW.   BOTH SET(S).
     5 ORBITALS ARE OCCUPIED (    1 CORE ORBITALS).
     2=A        3=A        4=A        5=A        6=A        7=A        8=A   
     9=A       10=A       11=A       12=A       13=A       14=A       15=A   
 ...... END OF INITIAL ORBITAL SELECTION ......
 CPU     0: STEP CPU TIME=     0.01 TOTAL CPU TIME=        0.0 (    0.0 MIN)
 TOTAL WALL CLOCK TIME=        0.1 SECONDS, CPU UTILIZATION IS  80.00%

                    ----------------------
                    AO INTEGRAL TECHNOLOGY
                    ----------------------
     S,P,L SHELL ROTATED AXIS INTEGRALS, REPROGRAMMED BY
        KAZUYA ISHIMURA (IMS) AND JOSE SIERRA (SYNSTAR).
     S,P,D,L SHELL ROTATED AXIS INTEGRALS PROGRAMMED BY
        KAZUYA ISHIMURA (INSTITUTE FOR MOLECULAR SCIENCE).
     S,P,D,F,G SHELL TO TOTAL QUARTET ANGULAR MOMENTUM SUM 5,
        ERIC PROGRAM BY GRAHAM FLETCHER (ELORET AND NASA ADVANCED
        SUPERCOMPUTING DIVISION, AMES RESEARCH CENTER).
     S,P,D,F,G,L SHELL GENERAL RYS QUADRATURE PROGRAMMED BY
        MICHEL DUPUIS (PACIFIC NORTHWEST NATIONAL LABORATORY).

          --------------------
          2 ELECTRON INTEGRALS
          --------------------

 THE -PK- OPTION IS OFF, THE INTEGRALS ARE NOT IN SUPERMATRIX FORM.
 STORING   15000 INTEGRALS/RECORD ON DISK, USING 12 BYTES/INTEGRAL.
 TWO ELECTRON INTEGRAL EVALUATION REQUIRES   99628 WORDS OF MEMORY.
 II,JST,KST,LST =  1  1  1  1 NREC =         1 INTLOC =    1
 II,JST,KST,LST =  2  1  1  1 NREC =         1 INTLOC =    1
 II,JST,KST,LST =  3  1  1  1 NREC =         1 INTLOC =    2
 II,JST,KST,LST =  4  1  1  1 NREC =         1 INTLOC =    7
 II,JST,KST,LST =  5  1  1  1 NREC =         1 INTLOC =   52
 II,JST,KST,LST =  6  1  1  1 NREC =         1 INTLOC =  139
 II,JST,KST,LST =  7  1  1  1 NREC =         1 INTLOC =  844
 II,JST,KST,LST =  8  1  1  1 NREC =         1 INTLOC =  844
 II,JST,KST,LST =  9  1  1  1 NREC =         1 INTLOC = 1519
 II,JST,KST,LST = 10  1  1  1 NREC =         1 INTLOC = 4759
 II,JST,KST,LST = 11  1  1  1 NREC =         1 INTLOC = 5439
 II,JST,KST,LST = 12  1  1  1 NREC =         1 INTLOC = 7627
 II,JST,KST,LST = 13  1  1  1 NREC =         1 INTLOC = 8890
 II,JST,KST,LST = 14  1  1  1 NREC =         1 INTLOC =14207
 II,JST,KST,LST = 15  1  1  1 NREC =         2 INTLOC = 6244
 II,JST,KST,LST = 16  1  1  1 NREC =         3 INTLOC =14444
 II,JST,KST,LST = 17  1  1  1 NREC =         4 INTLOC = 1402
 II,JST,KST,LST = 18  1  1  1 NREC =         5 INTLOC = 4763
 II,JST,KST,LST = 19  1  1  1 NREC =         8 INTLOC = 7233
 II,JST,KST,LST = 20  1  1  1 NREC =         9 INTLOC =11988
 II,JST,KST,LST = 21  1  1  1 NREC =        10 INTLOC =13105
 II,JST,KST,LST = 22  1  1  1 NREC =        12 INTLOC = 4409
 II,JST,KST,LST = 23  1  1  1 NREC =        14 INTLOC = 1743
 II,JST,KST,LST = 24  1  1  1 NREC =        17 INTLOC =11125
 II,JST,KST,LST = 25  1  1  1 NREC =        23 INTLOC = 2419
 II,JST,KST,LST = 26  1  1  1 NREC =        30 INTLOC = 3436
 II,JST,KST,LST = 27  1  1  1 NREC =        43 INTLOC = 2997
 II,JST,KST,LST = 28  1  1  1 NREC =        63 INTLOC =11828
 II,JST,KST,LST = 29  1  1  1 NREC =       104 INTLOC = 9465
 II,JST,KST,LST = 30  1  1  1 NREC =       111 INTLOC = 1293
 II,JST,KST,LST = 31  1  1  1 NREC =       131 INTLOC =  109
 II,JST,KST,LST = 32  1  1  1 NREC =       163 INTLOC =14408
 TOTAL NUMBER OF NONZERO TWO-ELECTRON INTEGRALS =             7265215
        485 INTEGRAL RECORDS WERE STORED ON DISK FILE  8.
  ...... END OF TWO-ELECTRON INTEGRALS .....
 CPU     0: STEP CPU TIME=     0.43 TOTAL CPU TIME=        0.5 (    0.0 MIN)
 TOTAL WALL CLOCK TIME=        0.5 SECONDS, CPU UTILIZATION IS  95.92%

          --------------------------
                 RHF SCF CALCULATION
          --------------------------

     NUCLEAR ENERGY =         7.8375569539
     MAXIT =   30     NPUNCH=    2
     EXTRAP=T  DAMP=F  SHIFT=F  RSTRCT=F  DIIS=F  DEM=F  SOSCF=T
     DENSITY MATRIX CONV=  1.00E-06
     SOSCF WILL OPTIMIZE     435 ORBITAL ROTATIONS, SOGTOL=   0.250
     MEMORY REQUIRED FOR RHF ITERS=    110385 WORDS.

 ITER EX DEM     TOTAL ENERGY        E CHANGE  DENSITY CHANGE     ORB. GRAD
   1  0  0      -75.7419771148   -75.7419771148   0.328064385   0.000000000
          ---------------START SECOND ORDER SCF---------------
   2  1  0      -75.9801178299    -0.2381407151   0.047325944   0.037991493
   3  2  0      -75.9969382371    -0.0168204072   0.025614354   0.011052784
   4  3  0      -75.9992649153    -0.0023266782   0.003005836   0.002903485
   5  4  0      -75.9993483253    -0.0000834100   0.002011292   0.001127123
   6  5  0      -75.9993660697    -0.0000177443   0.000461012   0.000585970
   7  6  0      -75.9993680927    -0.0000020230   0.000100317   0.000122978
   8  7  0      -75.9993682215    -0.0000001289   0.000057520   0.000027662
   9  8  0      -75.9993682418    -0.0000000202   0.000018466   0.000011030
  10  9  0      -75.9993682434    -0.0000000016   0.000002652   0.000002448
  11 10  0      -75.9993682434    -0.0000000000   0.000000598   0.000000431
  12 11  0      -75.9993682434    -0.0000000000   0.000000309   0.000000088

          -----------------
          DENSITY CONVERGED
          -----------------
     TIME TO FORM FOCK OPERATORS=       0.8 SECONDS (       0.1 SEC/ITER)
     TIME TO SOLVE SCF EQUATIONS=       0.0 SECONDS (       0.0 SEC/ITER)

 FINAL RHF ENERGY IS      -75.9993682434 AFTER  12 ITERATIONS

          ------------
          EIGENVECTORS
          ------------

                      1          2          3          4          5
                  -20.5770    -1.2733    -0.6639    -0.5163    -0.4901
                     A          A          A          A          A   
    1  H  1  S    0.000143   0.062948  -0.128455  -0.071950  -0.000000
    2  H  1  S    0.002648   0.060828  -0.194717  -0.142056  -0.000000
    3  H  1  S    0.000412  -0.004669  -0.061686  -0.087891  -0.000000
    4  H  1  X   -0.000000  -0.000000  -0.000000   0.000000   0.007580
    5  H  1  Y    0.000326   0.008227  -0.007887  -0.006055  -0.000000
    6  H  1  Z    0.000187   0.003753  -0.006254   0.003546  -0.000000
    7  H  1  X   -0.000000  -0.000000  -0.000000   0.000000   0.021630
    8  H  1  Y    0.001725   0.010338  -0.019087  -0.027109  -0.000000
    9  H  1  Z    0.000732   0.003174  -0.016973   0.005626  -0.000000
   10  H  1 XX   -0.000170  -0.000855   0.001364   0.001008  -0.000000
   11  H  1 YY    0.000250   0.001344  -0.000835  -0.003554  -0.000000
   12  H  1 ZZ   -0.000080  -0.000488  -0.000530   0.002546  -0.000000
   13  H  1 XY   -0.000000  -0.000000  -0.000000   0.000000   0.003645
   14  H  1 XZ   -0.000000  -0.000000  -0.000000   0.000000   0.001783
   15  H  1 YZ    0.000238   0.000883  -0.002866   0.000585  -0.000000
   16  H  1  S    0.000060  -0.000899   0.003415  -0.002819  -0.000000
   17  H  1  X   -0.000000  -0.000000  -0.000000   0.000000   0.014556
   18  H  1  Y    0.000288  -0.001977  -0.000298  -0.011426  -0.000000
   19  H  1  Z    0.000075  -0.001873  -0.000785   0.007120  -0.000000
   20  H  1 XX   -0.000276  -0.000871   0.002052   0.003458  -0.000000
   21  H  1 YY    0.000441   0.001605  -0.001111  -0.007157  -0.000000
   22  H  1 ZZ   -0.000165  -0.000734  -0.000941   0.003699  -0.000000
   23  H  1 XY   -0.000000  -0.000000  -0.000000   0.000000   0.003794
   24  H  1 XZ   -0.000000  -0.000000  -0.000000   0.000000   0.002198
   25  H  1 YZ    0.000365   0.000746  -0.004832  -0.000653  -0.000000
   26  H  2  S    0.000143   0.062948   0.128455  -0.071950  -0.000000
   27  H  2  S    0.002648   0.060828   0.194717  -0.142056  -0.000000
   28  H  2  S    0.000412  -0.004669   0.061686  -0.087891  -0.000000
   29  H  2  X   -0.000000  -0.000000  -0.000000   0.000000   0.007580
   30  H  2  Y   -0.000326  -0.008227  -0.007887   0.006055  -0.000000
   31  H  2  Z    0.000187   0.003753   0.006254   0.003546  -0.000000
   32  H  2  X   -0.000000  -0.000000  -0.000000   0.000000   0.021630
   33  H  2  Y   -0.001725  -0.010338  -0.019087   0.027109  -0.000000
   34  H  2  Z    0.000732   0.003174   0.016973   0.005626  -0.000000
   35  H  2 XX   -0.000170  -0.000855  -0.001364   0.001008  -0.000000
   36  H  2 YY    0.000250   0.001344   0.000835  -0.003554  -0.000000
   37  H  2 ZZ   -0.000080  -0.000488   0.000530   0.002546  -0.000000
   38  H  2 XY   -0.000000  -0.000000  -0.000000   0.000000  -0.003645
   39  H  2 XZ   -0.000000  -0.000000  -0.000000   0.000000   0.001783
   40  H  2 YZ   -0.000238  -0.000883  -0.002866  -0.000585  -0.000000
   41  H  2  S    0.000060  -0.000899  -0.003415  -0.002819  -0.000000
   42  H  2  X   -0.000000  -0.000000  -0.000000   0.000000   0.014556
   43  H  2  Y   -0.000288   0.001977  -0.000298   0.011426  -0.000000
   44  H  2  Z    0.000075  -0.001873   0.000785   0.007120  -0.000000
   45  H  2 XX   -0.000276  -0.000871  -0.002052   0.003458  -0.000000
   46  H  2 YY    0.000441   0.001605   0.001111  -0.007157  -0.000000
   47  H  2 ZZ   -0.000165  -0.000734   0.000941   0.003699  -0.000000
   48  H  2 XY   -0.000000  -0.000000  -0.000000   0.000000  -0.003794
   49  H  2 XZ   -0.000000  -0.000000  -0.000000   0.000000   0.002198
   50  H  2 YZ   -0.000365  -0.000746  -0.004832   0.000653  -0.000000
   51  O  3  S    0.975599  -0.006884  -0.000000   0.002624  -0.000000
   52  O  3  S   -0.001413   0.521462  -0.000000   0.131243  -0.000000
   53  O  3  S    0.043463   0.137528  -0.000000   0.040545  -0.000000
   54  O  3  S   -0.002312   0.332890  -0.000000   0.224952  -0.000000
   55  O  3  X   -0.000000  -0.000000  -0.000000   0.000000   0.355700
   56  O  3  Y   -0.000000  -0.000000   0.263677   0.000000  -0.000000
   57  O  3  Z   -0.001744  -0.018672  -0.000000   0.317665  -0.000000
   58  O  3  X   -0.000000  -0.000000  -0.000000   0.000000   0.451322
   59  O  3  Y   -0.000000  -0.000000   0.338064   0.000000  -0.000000
   60  O  3  Z    0.001861  -0.032819  -0.000000   0.400186  -0.000000
   61  O  3  X   -0.000000  -0.000000  -0.000000   0.000000   0.348460
   62  O  3  Y   -0.000000  -0.000000   0.193381   0.000000  -0.000000
   63  O  3  Z    0.000928  -0.013466  -0.000000   0.282394  -0.000000
   64  O  3 XX   -0.000012  -0.002005  -0.000000   0.004937  -0.000000
   65  O  3 YY    0.000050   0.002650  -0.000000  -0.001858  -0.000000
   66  O  3 ZZ   -0.000038  -0.000645  -0.000000  -0.003079  -0.000000
   67  O  3 XY   -0.000000  -0.000000  -0.000000   0.000000  -0.000000
   68  O  3 XZ   -0.000000  -0.000000  -0.000000   0.000000  -0.004079
   69  O  3 YZ   -0.000000  -0.000000  -0.009308   0.000000  -0.000000
   70  O  3 XX    0.000911  -0.008703  -0.000000   0.008881  -0.000000
   71  O  3 YY   -0.001228   0.011932  -0.000000   0.001992  -0.000000
   72  O  3 ZZ    0.000317  -0.003229  -0.000000  -0.010874  -0.000000
   73  O  3 XY   -0.000000  -0.000000  -0.000000   0.000000  -0.000000
   74  O  3 XZ   -0.000000  -0.000000  -0.000000   0.000000  -0.011408
   75  O  3 YZ   -0.000000  -0.000000  -0.025141   0.000000  -0.000000
   76  O  3 XXX  -0.000000  -0.000000  -0.000000   0.000000  -0.003056
   77  O  3 YYY  -0.000000  -0.000000   0.003833   0.000000  -0.000000
   78  O  3 ZZZ  -0.000086   0.001307  -0.000000  -0.001092  -0.000000
   79  O  3 XXY  -0.000000  -0.000000  -0.004090   0.000000  -0.000000
   80  O  3 XXZ  -0.000060   0.000999  -0.000000  -0.002206  -0.000000
   81  O  3 YYX  -0.000000  -0.000000  -0.000000   0.000000   0.003768
   82  O  3 YYZ   0.000175  -0.002752  -0.000000   0.003672  -0.000000
   83  O  3 ZZX  -0.000000  -0.000000  -0.000000   0.000000   0.000332
   84  O  3 ZZY  -0.000000  -0.000000  -0.001052   0.000000  -0.000000
   85  O  3 XYZ  -0.000000  -0.000000  -0.000000   0.000000  -0.000000
   86  O  3  S   -0.000568   0.028640  -0.000000   0.080722  -0.000000
   87  O  3  X   -0.000000  -0.000000  -0.000000   0.000000   0.041547
   88  O  3  Y   -0.000000  -0.000000   0.011521   0.000000  -0.000000
   89  O  3  Z   -0.000042  -0.001628  -0.000000   0.027713  -0.000000
   90  O  3 XX    0.000075  -0.000930  -0.000000   0.002289  -0.000000
   91  O  3 YY   -0.000016   0.002143  -0.000000   0.006119  -0.000000
   92  O  3 ZZ   -0.000060  -0.001213  -0.000000  -0.008408  -0.000000
   93  O  3 XY   -0.000000  -0.000000  -0.000000   0.000000  -0.000000
   94  O  3 XZ   -0.000000  -0.000000  -0.000000   0.000000  -0.008271
   95  O  3 YZ   -0.000000   0.000000  -0.010536   0.000000  -0.000000
   96  O  3 XXX  -0.000000  -0.000000  -0.000000   0.000000  -0.003584
   97  O  3 YYY  -0.000000  -0.000000   0.001696   0.000000  -0.000000
   98  O  3 ZZZ  -0.000146   0.001835  -0.000000  -0.000176  -0.000000
   99  O  3 XXY  -0.000000  -0.000000  -0.003844   0.000000  -0.000000
  100  O  3 XXZ  -0.000104   0.001152  -0.000000  -0.001781  -0.000000
  101  O  3 YYX  -0.000000  -0.000000  -0.000000   0.000000   0.004311
  102  O  3 YYZ   0.000299  -0.003614  -0.000000   0.002017  -0.000000
  103  O  3 ZZX  -0.000000  -0.000000  -0.000000   0.000000   0.000497
  104  O  3 ZZY  -0.000000  -0.000000   0.001569   0.000000  -0.000000
  105  O  3 XYZ  -0.000000  -0.000000  -0.000000   0.000000  -0.000000

                      6          7          8          9         10
                    0.0267     0.0453     0.1316     0.1578     0.1639
                     A          A          A          A          A   
    1  H  1  S   -0.016970  -0.003570   0.050276   0.058830   0.000000
    2  H  1  S   -0.176751   0.120972  -0.095592  -0.171405   0.000000
    3  H  1  S   -0.871993   1.037655  -2.749758   1.095394   0.000000
    4  H  1  X   -0.000000  -0.000000  -0.000000  -0.000000  -0.001503
    5  H  1  Y    0.003064  -0.004493  -0.002490  -0.011949   0.000000
    6  H  1  Z    0.000791  -0.001575  -0.001794  -0.001988   0.000000
    7  H  1  X   -0.000000  -0.000000  -0.000000  -0.000000   0.000524
    8  H  1  Y   -0.059822   0.066753  -0.233706  -0.054764   0.000000
    9  H  1  Z   -0.036289   0.028833  -0.075865  -0.033452   0.000000
   10  H  1 XX    0.002344  -0.001588   0.008467   0.000385   0.000000
   11  H  1 YY   -0.003362   0.002637  -0.009898  -0.003782   0.000000
   12  H  1 ZZ    0.001017  -0.001048   0.001430   0.003397   0.000000
   13  H  1 XY   -0.000000  -0.000000  -0.000000  -0.000000   0.003548
   14  H  1 XZ   -0.000000  -0.000000  -0.000000  -0.000000   0.001505
   15  H  1 YZ   -0.003803   0.001525  -0.009070  -0.003190   0.000000
   16  H  1  S   -0.811934   2.629956  -0.906633  -0.262501   0.000000
   17  H  1  X   -0.000000  -0.000000  -0.000000  -0.000000  -0.501294
   18  H  1  Y   -0.225713   0.256018  -1.239520  -0.104063   0.000000
   19  H  1  Z   -0.138621   0.222525  -0.355736  -0.364436   0.000000
   20  H  1 XX    0.017380  -0.017344   0.062879   0.013102   0.000000
   21  H  1 YY   -0.022424   0.015701  -0.130999  -0.001483   0.000000
   22  H  1 ZZ    0.005044   0.001643   0.068120  -0.011619   0.000000
   23  H  1 XY   -0.000000  -0.000000  -0.000000  -0.000000  -0.077467
   24  H  1 XZ   -0.000000  -0.000000  -0.000000  -0.000000  -0.013848
   25  H  1 YZ   -0.025784   0.031888  -0.080632  -0.051048   0.000000
   26  H  2  S   -0.016970   0.003570   0.050276   0.058830   0.000000
   27  H  2  S   -0.176751  -0.120972  -0.095592  -0.171405   0.000000
   28  H  2  S   -0.871993  -1.037655  -2.749758   1.095394   0.000000
   29  H  2  X   -0.000000  -0.000000  -0.000000  -0.000000  -0.001503
   30  H  2  Y   -0.003064  -0.004493   0.002490   0.011949   0.000000
   31  H  2  Z    0.000791   0.001575  -0.001794  -0.001988   0.000000
   32  H  2  X   -0.000000  -0.000000  -0.000000  -0.000000   0.000524
   33  H  2  Y    0.059822   0.066753   0.233706   0.054764   0.000000
   34  H  2  Z   -0.036289  -0.028833  -0.075865  -0.033452   0.000000
   35  H  2 XX    0.002344   0.001588   0.008467   0.000385   0.000000
   36  H  2 YY   -0.003362  -0.002637  -0.009898  -0.003782   0.000000
   37  H  2 ZZ    0.001017   0.001048   0.001430   0.003397   0.000000
   38  H  2 XY   -0.000000  -0.000000  -0.000000  -0.000000  -0.003548
   39  H  2 XZ   -0.000000  -0.000000  -0.000000  -0.000000   0.001505
   40  H  2 YZ    0.003803   0.001525   0.009070   0.003190   0.000000
   41  H  2  S   -0.811934  -2.629956  -0.906633  -0.262501   0.000000
   42  H  2  X   -0.000000  -0.000000  -0.000000  -0.000000  -0.501294
   43  H  2  Y    0.225713   0.256018   1.239520   0.104063   0.000000
   44  H  2  Z   -0.138621  -0.222525  -0.355736  -0.364436   0.000000
   45  H  2 XX    0.017380   0.017344   0.062879   0.013102   0.000000
   46  H  2 YY   -0.022424  -0.015701  -0.130999  -0.001483   0.000000
   47  H  2 ZZ    0.005044  -0.001643   0.068120  -0.011619   0.000000
   48  H  2 XY   -0.000000  -0.000000  -0.000000  -0.000000   0.077467
   49  H  2 XZ   -0.000000  -0.000000  -0.000000  -0.000000  -0.013848
   50  H  2 YZ    0.025784   0.031888   0.080632   0.051048   0.000000
   51  O  3  S   -0.007194  -0.000000  -0.030785  -0.006425   0.000000
   52  O  3  S    0.065407  -0.000000  -0.172229  -0.120370   0.000000
   53  O  3  S    0.015919  -0.000000  -0.054301  -0.043535   0.000000
   54  O  3  S    0.569963  -0.000000   1.347801   0.135486   0.000000
   55  O  3  X   -0.000000  -0.000000  -0.000000  -0.000000  -0.094591
   56  O  3  Y   -0.000000   0.039374  -0.000000  -0.000000   0.000000
   57  O  3  Z   -0.046355  -0.000000   0.107485  -0.017239   0.000000
   58  O  3  X   -0.000000  -0.000000  -0.000000  -0.000000  -0.082137
   59  O  3  Y   -0.000000   0.066011  -0.000000  -0.000000   0.000000
   60  O  3  Z   -0.068518  -0.000000   0.104839  -0.016336   0.000000
   61  O  3  X   -0.000000  -0.000000  -0.000000  -0.000000  -0.100875
   62  O  3  Y    0.000000   0.432331  -0.000000  -0.000000   0.000000
   63  O  3  Z   -0.249368  -0.000000  -0.414971  -0.146102   0.000000
   64  O  3 XX    0.001510  -0.000000   0.000864   0.002497   0.000000
   65  O  3 YY   -0.002600  -0.000000  -0.000952  -0.000444   0.000000
   66  O  3 ZZ    0.001090  -0.000000   0.000088  -0.002053   0.000000
   67  O  3 XY   -0.000000  -0.000000  -0.000000  -0.000000   0.000000
   68  O  3 XZ   -0.000000  -0.000000  -0.000000  -0.000000  -0.002166
   69  O  3 YZ   -0.000000   0.000592  -0.000000  -0.000000   0.000000
   70  O  3 XX   -0.016602  -0.000000  -0.035626  -0.045998   0.000000
   71  O  3 YY    0.019612  -0.000000   0.064261   0.042381   0.000000
   72  O  3 ZZ   -0.003010  -0.000000  -0.028635   0.003617   0.000000
   73  O  3 XY   -0.000000  -0.000000  -0.000000  -0.000000   0.000000
   74  O  3 XZ   -0.000000  -0.000000  -0.000000  -0.000000   0.025219
   75  O  3 YZ   -0.000000  -0.018189  -0.000000  -0.000000   0.000000
   76  O  3 XXX  -0.000000  -0.000000  -0.000000  -0.000000   0.003579
   77  O  3 YYY  -0.000000  -0.000024  -0.000000  -0.000000   0.000000
   78  O  3 ZZZ   0.000303  -0.000000   0.002593  -0.000845   0.000000
   79  O  3 XXY  -0.000000  -0.000089  -0.000000  -0.000000   0.000000
   80  O  3 XXZ   0.000584  -0.000000   0.001013   0.001197   0.000000
   81  O  3 YYX  -0.000000  -0.000000  -0.000000  -0.000000  -0.003193
   82  O  3 YYZ  -0.000990  -0.000000  -0.004491  -0.000062   0.000000
   83  O  3 ZZX  -0.000000  -0.000000  -0.000000  -0.000000  -0.001609
   84  O  3 ZZY  -0.000000   0.000121  -0.000000  -0.000000   0.000000
   85  O  3 XYZ  -0.000000  -0.000000  -0.000000  -0.000000   0.000000
   86  O  3  S    2.151029  -0.000000   6.510391  -0.735935   0.000000
   87  O  3  X   -0.000000  -0.000000  -0.000000  -0.000000   1.757104
   88  O  3  Y    0.000000   1.157278  -0.000000  -0.000000   0.000000
   89  O  3  Z   -0.212748  -0.000000  -1.465745   1.713828   0.000000
   90  O  3 XX   -0.048670  -0.000000  -0.090037   0.017084   0.000000
   91  O  3 YY    0.078322  -0.000000   0.025030   0.121955   0.000000
   92  O  3 ZZ   -0.029652  -0.000000   0.065007  -0.139039   0.000000
   93  O  3 XY   -0.000000  -0.000000  -0.000000  -0.000000   0.000000
   94  O  3 XZ   -0.000000  -0.000000  -0.000000  -0.000000  -0.153462
   95  O  3 YZ   -0.000000  -0.068972   0.000000  -0.000000   0.000000
   96  O  3 XXX  -0.000000  -0.000000  -0.000000  -0.000000  -0.008884
   97  O  3 YYY  -0.000000   0.008827  -0.000000  -0.000000   0.000000
   98  O  3 ZZZ   0.008965  -0.000000   0.008296   0.021528   0.000000
   99  O  3 XXY  -0.000000  -0.010826  -0.000000  -0.000000   0.000000
  100  O  3 XXZ   0.005360  -0.000000   0.007148   0.006808   0.000000
  101  O  3 YYX  -0.000000  -0.000000  -0.000000  -0.000000   0.004933
  102  O  3 YYZ  -0.017388  -0.000000  -0.018278  -0.035690   0.000000
  103  O  3 ZZX  -0.000000  -0.000000  -0.000000  -0.000000   0.006987
  104  O  3 ZZY  -0.000000  -0.001017  -0.000000  -0.000000   0.000000
  105  O  3 XYZ  -0.000000  -0.000000  -0.000000  -0.000000   0.000000

                     11         12         13         14         15
                    0.1745     0.2233     0.2373     0.2551     0.3201
                     A          A          A          A          A   
    1  H  1  S    0.017597   0.036443  -0.027225  -0.000000  -0.000000
    2  H  1  S   -0.345128   0.552417  -0.555128  -0.000000  -0.000000
    3  H  1  S   -3.377108   1.809385  -2.591895  -0.000000  -0.000000
    4  H  1  X   -0.000000   0.000000  -0.000000  -0.000986  -0.006212
    5  H  1  Y    0.000976  -0.007948  -0.002908  -0.000000  -0.000000
    6  H  1  Z   -0.002829  -0.005838   0.007970  -0.000000  -0.000000
    7  H  1  X   -0.000000   0.000000  -0.000000   0.174788  -0.113523
    8  H  1  Y   -0.253045   0.188686  -0.111921  -0.000000  -0.000000
    9  H  1  Z   -0.124020  -0.029954  -0.238484  -0.000000  -0.000000
   10  H  1 XX    0.005376  -0.007899   0.004468  -0.000000  -0.000000
   11  H  1 YY   -0.007381   0.011524  -0.012114  -0.000000  -0.000000
   12  H  1 ZZ    0.002005  -0.003624   0.007647  -0.000000  -0.000000
   13  H  1 XY   -0.000000   0.000000  -0.000000   0.001033   0.000551
   14  H  1 XZ   -0.000000   0.000000  -0.000000  -0.004871  -0.004905
   15  H  1 YZ   -0.006866   0.001263  -0.009980  -0.000000  -0.000000
   16  H  1  S   -2.559663   0.540730  -0.402035  -0.000000  -0.000000
   17  H  1  X   -0.000000   0.000000  -0.000000   1.406037  -1.852527
   18  H  1  Y   -1.229772  -0.261186   0.009642  -0.000000  -0.000000
   19  H  1  Z   -0.871368  -0.580742  -1.086109  -0.000000  -0.000000
   20  H  1 XX    0.060745   0.087530   0.016904  -0.000000  -0.000000
   21  H  1 YY   -0.056539  -0.007042   0.119945  -0.000000  -0.000000
   22  H  1 ZZ   -0.004206  -0.080488  -0.136849  -0.000000  -0.000000
   23  H  1 XY   -0.000000   0.000000  -0.000000   0.216814  -0.278543
   24  H  1 XZ   -0.000000   0.000000  -0.000000   0.161980  -0.057817
   25  H  1 YZ   -0.107534  -0.098359  -0.117918  -0.000000  -0.000000
   26  H  2  S   -0.017597  -0.036443  -0.027225  -0.000000  -0.000000
   27  H  2  S    0.345128  -0.552417  -0.555128  -0.000000  -0.000000
   28  H  2  S    3.377108  -1.809385  -2.591895  -0.000000  -0.000000
   29  H  2  X   -0.000000   0.000000  -0.000000   0.000986  -0.006212
   30  H  2  Y    0.000976  -0.007948   0.002908  -0.000000  -0.000000
   31  H  2  Z    0.002829   0.005838   0.007970  -0.000000  -0.000000
   32  H  2  X   -0.000000   0.000000  -0.000000  -0.174788  -0.113523
   33  H  2  Y   -0.253045   0.188686   0.111921  -0.000000  -0.000000
   34  H  2  Z    0.124020   0.029954  -0.238484  -0.000000  -0.000000
   35  H  2 XX   -0.005376   0.007899   0.004468  -0.000000  -0.000000
   36  H  2 YY    0.007381  -0.011524  -0.012114  -0.000000  -0.000000
   37  H  2 ZZ   -0.002005   0.003624   0.007647  -0.000000  -0.000000
   38  H  2 XY   -0.000000   0.000000  -0.000000   0.001033  -0.000551
   39  H  2 XZ   -0.000000   0.000000  -0.000000   0.004871  -0.004905
   40  H  2 YZ   -0.006866   0.001263   0.009980  -0.000000  -0.000000
   41  H  2  S    2.559663  -0.540730  -0.402035  -0.000000  -0.000000
   42  H  2  X   -0.000000   0.000000  -0.000000  -1.406037  -1.852527
   43  H  2  Y   -1.229772  -0.261186  -0.009642  -0.000000  -0.000000
   44  H  2  Z    0.871368   0.580742  -1.086109  -0.000000  -0.000000
   45  H  2 XX   -0.060745  -0.087530   0.016904  -0.000000  -0.000000
   46  H  2 YY    0.056539   0.007042   0.119945  -0.000000  -0.000000
   47  H  2 ZZ    0.004206   0.080488  -0.136849  -0.000000  -0.000000
   48  H  2 XY   -0.000000   0.000000  -0.000000   0.216814   0.278543
   49  H  2 XZ   -0.000000   0.000000  -0.000000  -0.161980  -0.057817
   50  H  2 YZ   -0.107534  -0.098359   0.117918  -0.000000  -0.000000
   51  O  3  S   -0.000000   0.000000  -0.034168  -0.000000  -0.000000
   52  O  3  S   -0.000000   0.000000  -0.103167  -0.000000  -0.000000
   53  O  3  S   -0.000000   0.000000  -0.035826  -0.000000  -0.000000
   54  O  3  S   -0.000000   0.000000   0.775079  -0.000000  -0.000000
   55  O  3  X   -0.000000   0.000000  -0.000000  -0.000000   0.086713
   56  O  3  Y    0.122501   0.053813  -0.000000  -0.000000  -0.000000
   57  O  3  Z   -0.000000   0.000000  -0.010272  -0.000000  -0.000000
   58  O  3  X   -0.000000   0.000000  -0.000000  -0.000000   0.016303
   59  O  3  Y    0.108065   0.071105  -0.000000  -0.000000  -0.000000
   60  O  3  Z   -0.000000   0.000000  -0.044046  -0.000000  -0.000000
   61  O  3  X   -0.000000   0.000000  -0.000000  -0.000000   1.308543
   62  O  3  Y   -1.070714   0.729831  -0.000000  -0.000000  -0.000000
   63  O  3  Z   -0.000000   0.000000   0.005162  -0.000000  -0.000000
   64  O  3 XX   -0.000000   0.000000   0.003422  -0.000000  -0.000000
   65  O  3 YY   -0.000000   0.000000  -0.004845  -0.000000  -0.000000
   66  O  3 ZZ   -0.000000   0.000000   0.001423  -0.000000  -0.000000
   67  O  3 XY   -0.000000   0.000000  -0.000000  -0.000972  -0.000000
   68  O  3 XZ   -0.000000   0.000000  -0.000000  -0.000000   0.001783
   69  O  3 YZ   -0.004663   0.003363  -0.000000  -0.000000  -0.000000
   70  O  3 XX   -0.000000   0.000000  -0.022872  -0.000000  -0.000000
   71  O  3 YY   -0.000000   0.000000   0.013726  -0.000000  -0.000000
   72  O  3 ZZ   -0.000000   0.000000   0.009146  -0.000000  -0.000000
   73  O  3 XY   -0.000000   0.000000  -0.000000  -0.029854  -0.000000
   74  O  3 XZ   -0.000000   0.000000  -0.000000  -0.000000   0.014802
   75  O  3 YZ    0.054049   0.000929  -0.000000  -0.000000  -0.000000
   76  O  3 XXX  -0.000000   0.000000  -0.000000  -0.000000   0.009364
   77  O  3 YYY   0.002574   0.003456  -0.000000  -0.000000  -0.000000
   78  O  3 ZZZ  -0.000000   0.000000  -0.002618  -0.000000  -0.000000
   79  O  3 XXY  -0.001686   0.003877  -0.000000  -0.000000  -0.000000
   80  O  3 XXZ  -0.000000   0.000000   0.001944  -0.000000  -0.000000
   81  O  3 YYX  -0.000000   0.000000  -0.000000  -0.000000  -0.009037
   82  O  3 YYZ  -0.000000   0.000000   0.001569  -0.000000  -0.000000
   83  O  3 ZZX  -0.000000   0.000000  -0.000000  -0.000000  -0.003526
   84  O  3 ZZY  -0.001768  -0.008514  -0.000000  -0.000000  -0.000000
   85  O  3 XYZ  -0.000000   0.000000  -0.000000   0.010614  -0.000000
   86  O  3  S   -0.000000   0.000000   5.669915  -0.000000  -0.000000
   87  O  3  X   -0.000000   0.000000  -0.000000  -0.000000   1.987276
   88  O  3  Y   -3.229127   2.232550  -0.000000  -0.000000  -0.000000
   89  O  3  Z   -0.000000   0.000000   0.302789  -0.000000  -0.000000
   90  O  3 XX   -0.000000   0.000000  -0.274738  -0.000000  -0.000000
   91  O  3 YY   -0.000000   0.000000   0.772936  -0.000000  -0.000000
   92  O  3 ZZ   -0.000000   0.000000  -0.498198  -0.000000  -0.000000
   93  O  3 XY   -0.000000   0.000000  -0.000000   0.679932  -0.000000
   94  O  3 XZ   -0.000000   0.000000  -0.000000  -0.000000  -0.357119
   95  O  3 YZ    0.195074  -0.638056  -0.000000  -0.000000  -0.000000
   96  O  3 XXX  -0.000000   0.000000  -0.000000  -0.000000  -0.060834
   97  O  3 YYY  -0.024427  -0.014289  -0.000000  -0.000000  -0.000000
   98  O  3 ZZZ  -0.000000   0.000000   0.036356  -0.000000  -0.000000
   99  O  3 XXY   0.028627  -0.038466  -0.000000  -0.000000  -0.000000
  100  O  3 XXZ  -0.000000   0.000000   0.004027  -0.000000  -0.000000
  101  O  3 YYX  -0.000000   0.000000  -0.000000  -0.000000   0.066410
  102  O  3 YYZ  -0.000000   0.000000  -0.052803  -0.000000  -0.000000
  103  O  3 ZZX  -0.000000   0.000000  -0.000000  -0.000000   0.015207
  104  O  3 ZZY   0.004145   0.057636  -0.000000  -0.000000  -0.000000
  105  O  3 XYZ  -0.000000   0.000000  -0.000000  -0.062809  -0.000000

                     16         17         18         19         20
                    0.3229     0.3572     0.3946     0.4353     0.6122
                     A          A          A          A          A   
    1  H  1  S   -0.025048   0.020484  -0.072345   0.047872   0.128643
    2  H  1  S   -0.529650  -0.255338  -0.214263   0.611356  -1.429409
    3  H  1  S   -3.578664  -0.123703  -4.566881   7.085185  -5.811419
    4  H  1  X    0.000000   0.000000  -0.000000   0.000000  -0.000000
    5  H  1  Y    0.006681  -0.008332   0.014763  -0.018468   0.021681
    6  H  1  Z   -0.003140   0.012149  -0.006114  -0.011989  -0.002099
    7  H  1  X    0.000000   0.000000  -0.000000   0.000000  -0.000000
    8  H  1  Y   -0.366061  -0.070757  -0.241283   0.315646  -0.829819
    9  H  1  Z   -0.019270  -0.046158  -0.045485   0.267276  -0.223665
   10  H  1 XX    0.011652  -0.001640   0.011883  -0.006690   0.025039
   11  H  1 YY   -0.017365   0.006145  -0.007564   0.005694  -0.033162
   12  H  1 ZZ    0.005713  -0.004506  -0.004318   0.000996   0.008123
   13  H  1 XY    0.000000   0.000000  -0.000000   0.000000  -0.000000
   14  H  1 XZ    0.000000   0.000000  -0.000000   0.000000  -0.000000
   15  H  1 YZ   -0.018966  -0.005683  -0.011061   0.015355  -0.014194
   16  H  1  S   -0.292445   0.558606  -0.641800   1.622573  -0.834045
   17  H  1  X    0.000000   0.000000  -0.000000   0.000000  -0.000000
   18  H  1  Y   -0.826754  -2.362015  -2.365213   2.763099  -1.321701
   19  H  1  Z    1.119664   1.211584  -1.239063   1.698460  -0.141726
   20  H  1 XX    0.056926   0.070351   0.169404  -0.200269  -0.125022
   21  H  1 YY   -0.182891  -0.242821  -0.332692   0.175642  -0.114306
   22  H  1 ZZ    0.125965   0.172470   0.163289   0.024627   0.239327
   23  H  1 XY    0.000000   0.000000  -0.000000   0.000000  -0.000000
   24  H  1 XZ    0.000000   0.000000  -0.000000   0.000000  -0.000000
   25  H  1 YZ    0.132904   0.080728  -0.281193   0.293878   0.173631
   26  H  2  S   -0.025048  -0.020484  -0.072345  -0.047872  -0.128643
   27  H  2  S   -0.529650   0.255338  -0.214263  -0.611356   1.429409
   28  H  2  S   -3.578664   0.123703  -4.566881  -7.085185   5.811419
   29  H  2  X    0.000000   0.000000  -0.000000   0.000000  -0.000000
   30  H  2  Y   -0.006681  -0.008332  -0.014763  -0.018468   0.021681
   31  H  2  Z   -0.003140  -0.012149  -0.006114   0.011989   0.002099
   32  H  2  X    0.000000   0.000000  -0.000000   0.000000  -0.000000
   33  H  2  Y    0.366061  -0.070757   0.241283   0.315646  -0.829819
   34  H  2  Z   -0.019270   0.046158  -0.045485  -0.267276   0.223665
   35  H  2 XX    0.011652   0.001640   0.011883   0.006690  -0.025039
   36  H  2 YY   -0.017365  -0.006145  -0.007564  -0.005694   0.033162
   37  H  2 ZZ    0.005713   0.004506  -0.004318  -0.000996  -0.008123
   38  H  2 XY    0.000000   0.000000  -0.000000   0.000000  -0.000000
   39  H  2 XZ    0.000000   0.000000  -0.000000   0.000000  -0.000000
   40  H  2 YZ    0.018966  -0.005683   0.011061   0.015355  -0.014194
   41  H  2  S   -0.292445  -0.558606  -0.641800  -1.622573   0.834045
   42  H  2  X    0.000000   0.000000  -0.000000   0.000000  -0.000000
   43  H  2  Y    0.826754  -2.362015   2.365213   2.763099  -1.321701
   44  H  2  Z    1.119664  -1.211584  -1.239063  -1.698460   0.141726
   45  H  2 XX    0.056926  -0.070351   0.169404   0.200269   0.125022
   46  H  2 YY   -0.182891   0.242821  -0.332692  -0.175642   0.114306
   47  H  2 ZZ    0.125965  -0.172470   0.163289  -0.024627  -0.239327
   48  H  2 XY    0.000000   0.000000  -0.000000   0.000000  -0.000000
   49  H  2 XZ    0.000000   0.000000  -0.000000   0.000000  -0.000000
   50  H  2 YZ   -0.132904   0.080728   0.281193   0.293878   0.173631
   51  O  3  S   -0.016330   0.000000  -0.042068   0.000000  -0.000000
   52  O  3  S   -0.057292   0.000000   0.093390   0.000000  -0.000000
   53  O  3  S   -0.039729   0.000000   0.029365   0.000000  -0.000000
   54  O  3  S    0.966391   0.000000   3.945990  -0.000000  -0.000000
   55  O  3  X    0.000000   0.000000  -0.000000   0.000000  -0.000000
   56  O  3  Y    0.000000   0.027990  -0.000000   0.191921   0.064270
   57  O  3  Z   -0.104952   0.000000  -0.097427   0.000000  -0.000000
   58  O  3  X    0.000000   0.000000  -0.000000   0.000000  -0.000000
   59  O  3  Y    0.000000   0.007022  -0.000000   0.347320   0.020408
   60  O  3  Z   -0.093893   0.000000  -0.210019   0.000000  -0.000000
   61  O  3  X    0.000000   0.000000  -0.000000   0.000000  -0.000000
   62  O  3  Y   -0.000000  -0.215751   0.000000   2.794324  -3.322513
   63  O  3  Z   -1.771589   0.000000  -0.858206   0.000000  -0.000000
   64  O  3 XX    0.007282   0.000000   0.009597   0.000000  -0.000000
   65  O  3 YY   -0.008167   0.000000  -0.014786   0.000000  -0.000000
   66  O  3 ZZ    0.000885   0.000000   0.005189   0.000000  -0.000000
   67  O  3 XY    0.000000   0.000000  -0.000000   0.000000  -0.000000
   68  O  3 XZ    0.000000   0.000000  -0.000000   0.000000  -0.000000
   69  O  3 YZ    0.000000  -0.002277  -0.000000   0.011853   0.009319
   70  O  3 XX   -0.053690   0.000000  -0.069528   0.000000  -0.000000
   71  O  3 YY    0.085000   0.000000   0.081539   0.000000  -0.000000
   72  O  3 ZZ   -0.031310   0.000000  -0.012011   0.000000  -0.000000
   73  O  3 XY    0.000000   0.000000  -0.000000   0.000000  -0.000000
   74  O  3 XZ    0.000000   0.000000  -0.000000   0.000000  -0.000000
   75  O  3 YZ    0.000000   0.012439  -0.000000  -0.114027   0.167650
   76  O  3 XXX   0.000000   0.000000  -0.000000   0.000000  -0.000000
   77  O  3 YYY   0.000000  -0.006567  -0.000000  -0.001633  -0.006394
   78  O  3 ZZZ   0.003567   0.000000   0.007204   0.000000  -0.000000
   79  O  3 XXY   0.000000  -0.000660  -0.000000  -0.004558  -0.007184
   80  O  3 XXZ  -0.004220   0.000000   0.007185   0.000000  -0.000000
   81  O  3 YYX   0.000000   0.000000  -0.000000   0.000000  -0.000000
   82  O  3 YYZ  -0.000566   0.000000  -0.016850   0.000000  -0.000000
   83  O  3 ZZX   0.000000   0.000000  -0.000000   0.000000  -0.000000
   84  O  3 ZZY   0.000000   0.009470  -0.000000   0.006749   0.015763
   85  O  3 XYZ   0.000000   0.000000  -0.000000   0.000000  -0.000000
   86  O  3  S    6.615815   0.000000   7.957276  -0.000000  -0.000000
   87  O  3  X    0.000000   0.000000  -0.000000   0.000000  -0.000000
   88  O  3  Y    0.000000   3.097740   0.000000   2.896422  -2.830614
   89  O  3  Z   -2.441032   0.000000  -0.384417   0.000000   0.000000
   90  O  3 XX   -0.262436   0.000000   0.287578   0.000000   0.000000
   91  O  3 YY   -0.073581   0.000000  -0.449422   0.000000  -0.000000
   92  O  3 ZZ    0.336017   0.000000   0.161843   0.000000   0.000000
   93  O  3 XY    0.000000   0.000000  -0.000000   0.000000  -0.000000
   94  O  3 XZ    0.000000   0.000000  -0.000000   0.000000  -0.000000
   95  O  3 YZ    0.000000   0.353280  -0.000000   0.118817   2.109002
   96  O  3 XXX   0.000000   0.000000  -0.000000   0.000000  -0.000000
   97  O  3 YYY   0.000000   0.017535  -0.000000   0.075658  -0.001609
   98  O  3 ZZZ   0.024765   0.000000  -0.018268   0.000000  -0.000000
   99  O  3 XXY   0.000000   0.014453  -0.000000  -0.033693   0.142182
  100  O  3 XXZ   0.053103   0.000000  -0.019460   0.000000  -0.000000
  101  O  3 YYX   0.000000   0.000000  -0.000000   0.000000  -0.000000
  102  O  3 YYZ  -0.086329   0.000000   0.043970   0.000000  -0.000000
  103  O  3 ZZX   0.000000   0.000000  -0.000000   0.000000  -0.000000
  104  O  3 ZZY   0.000000  -0.037978  -0.000000  -0.067813  -0.140022
  105  O  3 XYZ   0.000000   0.000000  -0.000000   0.000000  -0.000000

                     21         22         23         24         25
                    0.6228     0.7097     0.7134     0.7148     0.7865
                     A          A          A          A          A   
    1  H  1  S    0.107846   0.008374  -0.000000  -0.000000  -0.048404
    2  H  1  S    0.325451  -0.549032  -0.000000  -0.000000  -1.660746
    3  H  1  S   -6.106105  -1.677592  -0.000000  -0.000000   1.903848
    4  H  1  X   -0.000000  -0.000000   0.004583  -0.036821   0.000000
    5  H  1  Y    0.014726   0.002571  -0.000000  -0.000000  -0.044489
    6  H  1  Z    0.032129  -0.009308  -0.000000  -0.000000   0.033347
    7  H  1  X   -0.000000  -0.000000  -0.100719   0.378688   0.000000
    8  H  1  Y   -0.331171  -0.234339  -0.000000  -0.000000   0.171961
    9  H  1  Z   -0.352863  -0.027569  -0.000000  -0.000000  -0.423300
   10  H  1 XX    0.010431   0.018072  -0.000000  -0.000000   0.001677
   11  H  1 YY   -0.018245  -0.003201  -0.000000  -0.000000  -0.009337
   12  H  1 ZZ    0.007813  -0.014871  -0.000000  -0.000000   0.007660
   13  H  1 XY   -0.000000  -0.000000  -0.015295   0.003164   0.000000
   14  H  1 XZ   -0.000000  -0.000000   0.012653  -0.006648   0.000000
   15  H  1 YZ   -0.016197  -0.000044  -0.000000  -0.000000   0.005417
   16  H  1  S   -0.333950  -0.105895  -0.000000  -0.000000  -0.015496
   17  H  1  X   -0.000000  -0.000000  -0.726009   1.399019   0.000000
   18  H  1  Y   -1.185845  -0.501759  -0.000000  -0.000000   0.895490
   19  H  1  Z   -1.206353   0.461523  -0.000000  -0.000000  -1.025446
   20  H  1 XX    0.087469  -0.181094  -0.000000  -0.000000  -0.172806
   21  H  1 YY    0.131468  -0.178095  -0.000000  -0.000000   0.620132
   22  H  1 ZZ   -0.218938   0.359189  -0.000000  -0.000000  -0.447326
   23  H  1 XY   -0.000000  -0.000000   0.096943   0.719431   0.000000
   24  H  1 XZ   -0.000000  -0.000000  -0.345945   0.390589   0.000000
   25  H  1 YZ   -0.257186  -0.145620  -0.000000  -0.000000  -0.617295
   26  H  2  S    0.107846   0.008374  -0.000000  -0.000000  -0.048404
   27  H  2  S    0.325451  -0.549032  -0.000000  -0.000000  -1.660746
   28  H  2  S   -6.106105  -1.677592  -0.000000  -0.000000   1.903848
   29  H  2  X   -0.000000  -0.000000   0.004583   0.036821   0.000000
   30  H  2  Y   -0.014726  -0.002571  -0.000000  -0.000000   0.044489
   31  H  2  Z    0.032129  -0.009308  -0.000000  -0.000000   0.033347
   32  H  2  X   -0.000000  -0.000000  -0.100719  -0.378688   0.000000
   33  H  2  Y    0.331171   0.234339  -0.000000  -0.000000  -0.171961
   34  H  2  Z   -0.352863  -0.027569  -0.000000  -0.000000  -0.423300
   35  H  2 XX    0.010431   0.018072  -0.000000  -0.000000   0.001677
   36  H  2 YY   -0.018245  -0.003201  -0.000000  -0.000000  -0.009337
   37  H  2 ZZ    0.007813  -0.014871  -0.000000  -0.000000   0.007660
   38  H  2 XY   -0.000000  -0.000000   0.015295   0.003164   0.000000
   39  H  2 XZ   -0.000000  -0.000000   0.012653   0.006648   0.000000
   40  H  2 YZ    0.016197   0.000044  -0.000000  -0.000000  -0.005417
   41  H  2  S   -0.333950  -0.105895  -0.000000  -0.000000  -0.015496
   42  H  2  X   -0.000000  -0.000000  -0.726009  -1.399019   0.000000
   43  H  2  Y    1.185845   0.501759  -0.000000  -0.000000  -0.895490
   44  H  2  Z   -1.206353   0.461523  -0.000000  -0.000000  -1.025446
   45  H  2 XX    0.087469  -0.181094  -0.000000  -0.000000  -0.172806
   46  H  2 YY    0.131468  -0.178095  -0.000000  -0.000000   0.620132
   47  H  2 ZZ   -0.218938   0.359189  -0.000000  -0.000000  -0.447326
   48  H  2 XY   -0.000000  -0.000000  -0.096943   0.719431   0.000000
   49  H  2 XZ   -0.000000  -0.000000  -0.345945  -0.390589   0.000000
   50  H  2 YZ    0.257186   0.145620  -0.000000  -0.000000   0.617295
   51  O  3  S   -0.076525  -0.026768  -0.000000  -0.000000  -0.014358
   52  O  3  S   -0.133395  -0.056724  -0.000000  -0.000000   0.064759
   53  O  3  S   -0.032477  -0.023329  -0.000000  -0.000000   0.010032
   54  O  3  S    2.837998   1.320308  -0.000000  -0.000000   0.514643
   55  O  3  X   -0.000000  -0.000000   0.035750  -0.000000   0.000000
   56  O  3  Y   -0.000000  -0.000000  -0.000000  -0.000000   0.000000
   57  O  3  Z   -0.007897  -0.029558  -0.000000  -0.000000  -0.031849
   58  O  3  X   -0.000000  -0.000000   0.061357  -0.000000   0.000000
   59  O  3  Y   -0.000000  -0.000000  -0.000000  -0.000000   0.000000
   60  O  3  Z   -0.117954  -0.105529  -0.000000  -0.000000  -0.096166
   61  O  3  X   -0.000000  -0.000000   0.343500  -0.000000   0.000000
   62  O  3  Y   -0.000000  -0.000000  -0.000000  -0.000000  -0.000000
   63  O  3  Z    0.147753  -0.879339  -0.000000  -0.000000   1.544505
   64  O  3 XX   -0.011411  -0.026439  -0.000000  -0.000000   0.008023
   65  O  3 YY    0.018150  -0.002201  -0.000000  -0.000000  -0.000339
   66  O  3 ZZ   -0.006740   0.028640  -0.000000  -0.000000  -0.007684
   67  O  3 XY   -0.000000  -0.000000  -0.000000   0.022567   0.000000
   68  O  3 XZ   -0.000000  -0.000000  -0.032811  -0.000000   0.000000
   69  O  3 YZ   -0.000000  -0.000000  -0.000000  -0.000000   0.000000
   70  O  3 XX   -0.049061   0.034216  -0.000000  -0.000000  -0.023616
   71  O  3 YY    0.083176   0.050550  -0.000000  -0.000000   0.045709
   72  O  3 ZZ   -0.034115  -0.084766  -0.000000  -0.000000  -0.022093
   73  O  3 XY   -0.000000  -0.000000  -0.000000   0.006111   0.000000
   74  O  3 XZ   -0.000000  -0.000000   0.082630  -0.000000   0.000000
   75  O  3 YZ   -0.000000  -0.000000  -0.000000  -0.000000   0.000000
   76  O  3 XXX  -0.000000  -0.000000   0.005139  -0.000000   0.000000
   77  O  3 YYY  -0.000000  -0.000000  -0.000000  -0.000000   0.000000
   78  O  3 ZZZ   0.007670  -0.011437  -0.000000  -0.000000  -0.020125
   79  O  3 XXY  -0.000000  -0.000000  -0.000000  -0.000000   0.000000
   80  O  3 XXZ   0.008058   0.000577  -0.000000  -0.000000   0.006408
   81  O  3 YYX  -0.000000  -0.000000  -0.017028  -0.000000   0.000000
   82  O  3 YYZ  -0.018348   0.014768  -0.000000  -0.000000   0.020592
   83  O  3 ZZX  -0.000000  -0.000000   0.010134  -0.000000   0.000000
   84  O  3 ZZY  -0.000000  -0.000000  -0.000000  -0.000000   0.000000
   85  O  3 XYZ  -0.000000  -0.000000  -0.000000   0.024421   0.000000
   86  O  3  S    9.301096   2.779868  -0.000000  -0.000000  -2.037141
   87  O  3  X   -0.000000  -0.000000   0.912691  -0.000000   0.000000
   88  O  3  Y   -0.000000  -0.000000  -0.000000  -0.000000   0.000000
   89  O  3  Z   -0.960559  -1.183712  -0.000000  -0.000000   1.428059
   90  O  3 XX   -0.395634  -0.814593  -0.000000  -0.000000  -0.283186
   91  O  3 YY    1.076812   0.095176  -0.000000  -0.000000   2.129748
   92  O  3 ZZ   -0.681178   0.719417  -0.000000  -0.000000  -1.846562
   93  O  3 XY   -0.000000  -0.000000  -0.000000   2.162220   0.000000
   94  O  3 XZ   -0.000000  -0.000000  -0.789864  -0.000000   0.000000
   95  O  3 YZ    0.000000  -0.000000  -0.000000  -0.000000   0.000000
   96  O  3 XXX  -0.000000  -0.000000  -0.047651  -0.000000   0.000000
   97  O  3 YYY  -0.000000  -0.000000  -0.000000  -0.000000   0.000000
   98  O  3 ZZZ   0.000192   0.074514  -0.000000  -0.000000   0.137866
   99  O  3 XXY  -0.000000  -0.000000  -0.000000  -0.000000   0.000000
  100  O  3 XXZ  -0.022447   0.024383  -0.000000  -0.000000  -0.030123
  101  O  3 YYX  -0.000000  -0.000000   0.105400  -0.000000   0.000000
  102  O  3 YYZ   0.022190  -0.124354  -0.000000  -0.000000  -0.154844
  103  O  3 ZZX  -0.000000  -0.000000  -0.041470  -0.000000   0.000000
  104  O  3 ZZY  -0.000000  -0.000000  -0.000000  -0.000000   0.000000
  105  O  3 XYZ  -0.000000  -0.000000  -0.000000  -0.183586   0.000000

                     26         27         28         29         30
                    0.8601     0.8674     0.8848     0.9291     0.9310
                     A          A          A          A          A   
    1  H  1  S   -0.000000  -0.026558   0.000000   0.092720   0.062381
    2  H  1  S   -0.000000  -1.223578   0.000000  -2.650268   0.200018
    3  H  1  S   -0.000000   1.202398   0.000000  -5.372984  -4.251549
    4  H  1  X    0.023279   0.000000   0.002851   0.000000  -0.000000
    5  H  1  Y   -0.000000  -0.003967   0.000000  -0.004682   0.006647
    6  H  1  Z   -0.000000  -0.010539   0.000000  -0.019899   0.002444
    7  H  1  X   -0.259978   0.000000   0.027068   0.000000  -0.000000
    8  H  1  Y   -0.000000   0.019989   0.000000  -1.443636  -0.385840
    9  H  1  Z   -0.000000   0.144775   0.000000  -0.445259  -0.357343
   10  H  1 XX   -0.000000  -0.033115   0.000000   0.033104  -0.002715
   11  H  1 YY   -0.000000   0.009335   0.000000  -0.054099  -0.008169
   12  H  1 ZZ   -0.000000   0.023780   0.000000   0.020996   0.010884
   13  H  1 XY    0.021792   0.000000   0.003398   0.000000  -0.000000
   14  H  1 XZ   -0.018183   0.000000   0.045436   0.000000  -0.000000
   15  H  1 YZ   -0.000000   0.005088   0.000000  -0.064333  -0.016760
   16  H  1  S   -0.000000   0.103017   0.000000  -0.415746  -0.836238
   17  H  1  X   -1.658812   0.000000  -0.376463   0.000000  -0.000000
   18  H  1  Y   -0.000000  -0.183039   0.000000  -1.987881  -0.022764
   19  H  1  Z   -0.000000   0.617740   0.000000  -0.294893  -2.097344
   20  H  1 XX   -0.000000   0.560388   0.000000   0.489108   0.366923
   21  H  1 YY   -0.000000  -0.247359   0.000000  -1.083359   0.630154
   22  H  1 ZZ   -0.000000  -0.313029   0.000000   0.594251  -0.997077
   23  H  1 XY   -1.268192   0.000000  -0.243965   0.000000  -0.000000
   24  H  1 XZ   -0.054615   0.000000  -0.891909   0.000000  -0.000000
   25  H  1 YZ   -0.000000   0.244894   0.000000  -0.145328  -0.787733
   26  H  2  S   -0.000000   0.026558   0.000000   0.092720  -0.062381
   27  H  2  S   -0.000000   1.223578   0.000000  -2.650268  -0.200018
   28  H  2  S   -0.000000  -1.202398   0.000000  -5.372984   4.251549
   29  H  2  X    0.023279   0.000000  -0.002851   0.000000  -0.000000
   30  H  2  Y   -0.000000  -0.003967   0.000000   0.004682   0.006647
   31  H  2  Z   -0.000000   0.010539   0.000000  -0.019899  -0.002444
   32  H  2  X   -0.259978   0.000000  -0.027068   0.000000  -0.000000
   33  H  2  Y   -0.000000   0.019989   0.000000   1.443636  -0.385840
   34  H  2  Z   -0.000000  -0.144775   0.000000  -0.445259   0.357343
   35  H  2 XX   -0.000000   0.033115   0.000000   0.033104   0.002715
   36  H  2 YY   -0.000000  -0.009335   0.000000  -0.054099   0.008169
   37  H  2 ZZ   -0.000000  -0.023780   0.000000   0.020996  -0.010884
   38  H  2 XY   -0.021792   0.000000   0.003398   0.000000  -0.000000
   39  H  2 XZ   -0.018183   0.000000  -0.045436   0.000000  -0.000000
   40  H  2 YZ   -0.000000   0.005088   0.000000   0.064333  -0.016760
   41  H  2  S   -0.000000  -0.103017   0.000000  -0.415746   0.836238
   42  H  2  X   -1.658812   0.000000   0.376463   0.000000  -0.000000
   43  H  2  Y   -0.000000  -0.183039   0.000000   1.987881  -0.022764
   44  H  2  Z   -0.000000  -0.617740   0.000000  -0.294893   2.097344
   45  H  2 XX   -0.000000  -0.560388   0.000000   0.489108  -0.366923
   46  H  2 YY   -0.000000   0.247359   0.000000  -1.083359  -0.630154
   47  H  2 ZZ   -0.000000   0.313029   0.000000   0.594251   0.997077
   48  H  2 XY    1.268192   0.000000  -0.243965   0.000000  -0.000000
   49  H  2 XZ   -0.054615   0.000000   0.891909   0.000000  -0.000000
   50  H  2 YZ   -0.000000   0.244894   0.000000   0.145328  -0.787733
   51  O  3  S   -0.000000   0.000000   0.000000  -0.099101  -0.000000
   52  O  3  S   -0.000000   0.000000   0.000000  -0.156092  -0.000000
   53  O  3  S   -0.000000   0.000000   0.000000  -0.119266  -0.000000
   54  O  3  S   -0.000000   0.000000   0.000000   7.994143  -0.000000
   55  O  3  X   -0.022341   0.000000   0.000000   0.000000  -0.000000
   56  O  3  Y   -0.000000  -0.082432   0.000000   0.000000   0.133565
   57  O  3  Z   -0.000000   0.000000   0.000000   0.205759  -0.000000
   58  O  3  X   -0.095560   0.000000   0.000000   0.000000  -0.000000
   59  O  3  Y   -0.000000  -0.133958   0.000000   0.000000   0.115642
   60  O  3  Z   -0.000000   0.000000   0.000000   0.209409  -0.000000
   61  O  3  X    2.883771   0.000000   0.000000   0.000000  -0.000000
   62  O  3  Y   -0.000000  -0.364496   0.000000  -0.000000  -2.742290
   63  O  3  Z   -0.000000   0.000000   0.000000  -4.644032   0.000000
   64  O  3 XX   -0.000000   0.000000   0.000000   0.025910  -0.000000
   65  O  3 YY   -0.000000   0.000000   0.000000  -0.018726  -0.000000
   66  O  3 ZZ   -0.000000   0.000000   0.000000  -0.007184  -0.000000
   67  O  3 XY   -0.000000   0.000000   0.015783   0.000000  -0.000000
   68  O  3 XZ   -0.010852   0.000000   0.000000   0.000000  -0.000000
   69  O  3 YZ   -0.000000   0.012175   0.000000   0.000000  -0.003445
   70  O  3 XX   -0.000000   0.000000   0.000000  -0.331399  -0.000000
   71  O  3 YY   -0.000000   0.000000   0.000000   0.391316  -0.000000
   72  O  3 ZZ   -0.000000   0.000000   0.000000  -0.059917  -0.000000
   73  O  3 XY   -0.000000   0.000000  -0.069319   0.000000  -0.000000
   74  O  3 XZ   -0.001280   0.000000   0.000000   0.000000  -0.000000
   75  O  3 YZ   -0.000000  -0.049608   0.000000   0.000000   0.070519
   76  O  3 XXX   0.022441   0.000000   0.000000   0.000000  -0.000000
   77  O  3 YYY  -0.000000   0.009663   0.000000   0.000000   0.028822
   78  O  3 ZZZ  -0.000000   0.000000   0.000000   0.003578  -0.000000
   79  O  3 XXY  -0.000000  -0.028995   0.000000   0.000000  -0.008455
   80  O  3 XXZ  -0.000000   0.000000   0.000000  -0.006451  -0.000000
   81  O  3 YYX  -0.015075   0.000000   0.000000   0.000000  -0.000000
   82  O  3 YYZ  -0.000000   0.000000   0.000000   0.001650  -0.000000
   83  O  3 ZZX  -0.015033   0.000000   0.000000   0.000000  -0.000000
   84  O  3 ZZY  -0.000000   0.016031   0.000000   0.000000  -0.030214
   85  O  3 XYZ  -0.000000   0.000000   0.006993   0.000000  -0.000000
   86  O  3  S   -0.000000   0.000000   0.000000   8.293554  -0.000000
   87  O  3  X    1.349559   0.000000   0.000000   0.000000  -0.000000
   88  O  3  Y   -0.000000   0.850493   0.000000  -0.000000  -2.902792
   89  O  3  Z   -0.000000   0.000000   0.000000  -0.867610   0.000000
   90  O  3 XX   -0.000000   0.000000   0.000000  -0.846872   0.000000
   91  O  3 YY   -0.000000   0.000000   0.000000   0.711163  -0.000000
   92  O  3 ZZ   -0.000000   0.000000   0.000000   0.135708  -0.000000
   93  O  3 XY   -0.000000   0.000000  -0.343752   0.000000  -0.000000
   94  O  3 XZ   -1.565906   0.000000   0.000000   0.000000  -0.000000
   95  O  3 YZ   -0.000000   1.019529   0.000000  -0.000000  -1.096348
   96  O  3 XXX  -0.160585   0.000000   0.000000   0.000000  -0.000000
   97  O  3 YYY  -0.000000  -0.024182   0.000000   0.000000  -0.249120
   98  O  3 ZZZ  -0.000000   0.000000   0.000000   0.158715  -0.000000
   99  O  3 XXY  -0.000000   0.144354   0.000000   0.000000   0.096284
  100  O  3 XXZ  -0.000000   0.000000   0.000000   0.157808  -0.000000
  101  O  3 YYX   0.136472   0.000000   0.000000   0.000000  -0.000000
  102  O  3 YYZ  -0.000000   0.000000   0.000000  -0.370747   0.000000
  103  O  3 ZZX   0.078976   0.000000   0.000000   0.000000  -0.000000
  104  O  3 ZZY  -0.000000  -0.111911   0.000000   0.000000   0.237945
  105  O  3 XYZ  -0.000000   0.000000  -0.035605   0.000000  -0.000000

                     31         32         33         34         35
                    0.9726     0.9969     1.0038     1.0139     1.0572
                     A          A          A          A          A   
    1  H  1  S    0.000000  -0.072894   0.076120   0.027179   0.000000
    2  H  1  S    0.000000  -2.470937   0.355522  -0.745484   0.000000
    3  H  1  S    0.000000   3.023248  -4.527112   0.012941   0.000000
    4  H  1  X   -0.001647   0.000000  -0.000000   0.000000   0.007131
    5  H  1  Y    0.000000  -0.036438   0.023026   0.011700   0.000000
    6  H  1  Z    0.000000  -0.016714   0.017412   0.003057   0.000000
    7  H  1  X   -0.170906   0.000000  -0.000000   0.000000  -0.036260
    8  H  1  Y    0.000000  -0.257090  -0.233413  -0.164157   0.000000
    9  H  1  Z    0.000000  -0.127004  -0.270377  -0.061141   0.000000
   10  H  1 XX    0.000000  -0.001719  -0.001185  -0.033056   0.000000
   11  H  1 YY    0.000000  -0.025837   0.009201  -0.001155   0.000000
   12  H  1 ZZ    0.000000   0.027556  -0.008016   0.034211   0.000000
   13  H  1 XY   -0.032364   0.000000  -0.000000   0.000000  -0.016984
   14  H  1 XZ    0.002652   0.000000  -0.000000   0.000000  -0.032323
   15  H  1 YZ    0.000000  -0.031605   0.002153  -0.010715   0.000000
   16  H  1  S    0.000000   0.172107  -0.580754  -0.022000   0.000000
   17  H  1  X   -0.870505   0.000000  -0.000000   0.000000   0.165575
   18  H  1  Y    0.000000   1.814887  -2.693516  -0.086216   0.000000
   19  H  1  Z    0.000000   1.428387  -0.795082  -0.494787   0.000000
   20  H  1 XX    0.000000  -0.278454   0.613335   0.954533   0.000000
   21  H  1 YY    0.000000   0.556375  -1.084114  -0.117542   0.000000
   22  H  1 ZZ    0.000000  -0.277921   0.470779  -0.836991   0.000000
   23  H  1 XY   -0.326037   0.000000  -0.000000   0.000000   0.347559
   24  H  1 XZ   -0.752799   0.000000  -0.000000   0.000000   0.738992
   25  H  1 YZ    0.000000   1.175971  -0.856243  -0.217854   0.000000
   26  H  2  S    0.000000  -0.072894  -0.076120   0.027179   0.000000
   27  H  2  S    0.000000  -2.470937  -0.355522  -0.745484   0.000000
   28  H  2  S    0.000000   3.023248   4.527112   0.012941   0.000000
   29  H  2  X   -0.001647   0.000000  -0.000000   0.000000   0.007131
   30  H  2  Y    0.000000   0.036438   0.023026  -0.011700   0.000000
   31  H  2  Z    0.000000  -0.016714  -0.017412   0.003057   0.000000
   32  H  2  X   -0.170906   0.000000  -0.000000   0.000000  -0.036260
   33  H  2  Y    0.000000   0.257090  -0.233413   0.164157   0.000000
   34  H  2  Z    0.000000  -0.127004   0.270377  -0.061141   0.000000
   35  H  2 XX    0.000000  -0.001719   0.001185  -0.033056   0.000000
   36  H  2 YY    0.000000  -0.025837  -0.009201  -0.001155   0.000000
   37  H  2 ZZ    0.000000   0.027556   0.008016   0.034211   0.000000
   38  H  2 XY    0.032364   0.000000  -0.000000   0.000000   0.016984
   39  H  2 XZ    0.002652   0.000000  -0.000000   0.000000  -0.032323
   40  H  2 YZ    0.000000   0.031605   0.002153   0.010715   0.000000
   41  H  2  S    0.000000   0.172107   0.580754  -0.022000   0.000000
   42  H  2  X   -0.870505   0.000000  -0.000000   0.000000   0.165575
   43  H  2  Y    0.000000  -1.814887  -2.693516   0.086216   0.000000
   44  H  2  Z    0.000000   1.428387   0.795082  -0.494787   0.000000
   45  H  2 XX    0.000000  -0.278454  -0.613335   0.954533   0.000000
   46  H  2 YY    0.000000   0.556375   1.084114  -0.117542   0.000000
   47  H  2 ZZ    0.000000  -0.277921  -0.470779  -0.836991   0.000000
   48  H  2 XY    0.326037   0.000000  -0.000000   0.000000  -0.347559
   49  H  2 XZ   -0.752799   0.000000  -0.000000   0.000000   0.738992
   50  H  2 YZ    0.000000  -1.175971  -0.856243   0.217854   0.000000
   51  O  3  S    0.000000  -0.021597  -0.000000  -0.007633   0.000000
   52  O  3  S    0.000000   0.181689  -0.000000  -0.029856   0.000000
   53  O  3  S    0.000000   0.031130  -0.000000  -0.017304   0.000000
   54  O  3  S    0.000000  -2.896289  -0.000000   1.799591   0.000000
   55  O  3  X   -0.191647   0.000000  -0.000000   0.000000  -0.175585
   56  O  3  Y    0.000000   0.000000   0.167868   0.000000   0.000000
   57  O  3  Z    0.000000  -0.017607  -0.000000  -0.005695   0.000000
   58  O  3  X   -0.613926   0.000000  -0.000000   0.000000  -0.582483
   59  O  3  Y    0.000000   0.000000  -0.044412   0.000000   0.000000
   60  O  3  Z    0.000000   0.160679  -0.000000  -0.102141   0.000000
   61  O  3  X    2.664118   0.000000  -0.000000   0.000000   0.013686
   62  O  3  Y    0.000000   0.000000  -0.775564   0.000000   0.000000
   63  O  3  Z    0.000000  -2.011024  -0.000000   0.555989   0.000000
   64  O  3 XX    0.000000  -0.003871  -0.000000  -0.016039   0.000000
   65  O  3 YY    0.000000  -0.000593  -0.000000  -0.005449   0.000000
   66  O  3 ZZ    0.000000   0.004464  -0.000000   0.021488   0.000000
   67  O  3 XY    0.000000   0.000000  -0.000000   0.000000   0.000000
   68  O  3 XZ    0.021195   0.000000  -0.000000   0.000000  -0.016280
   69  O  3 YZ    0.000000   0.000000  -0.004212   0.000000   0.000000
   70  O  3 XX    0.000000   0.002460  -0.000000   0.045799   0.000000
   71  O  3 YY    0.000000  -0.005077  -0.000000   0.060078   0.000000
   72  O  3 ZZ    0.000000   0.002618  -0.000000  -0.105877   0.000000
   73  O  3 XY    0.000000   0.000000  -0.000000   0.000000   0.000000
   74  O  3 XZ   -0.102563   0.000000  -0.000000   0.000000   0.066793
   75  O  3 YZ    0.000000   0.000000   0.111368   0.000000   0.000000
   76  O  3 XXX   0.015341   0.000000  -0.000000   0.000000  -0.006334
   77  O  3 YYY   0.000000   0.000000  -0.004273   0.000000   0.000000
   78  O  3 ZZZ   0.000000  -0.007715  -0.000000   0.014924   0.000000
   79  O  3 XXY   0.000000   0.000000   0.009554   0.000000   0.000000
   80  O  3 XXZ   0.000000  -0.015386  -0.000000  -0.006379   0.000000
   81  O  3 YYX  -0.031702   0.000000  -0.000000   0.000000   0.016200
   82  O  3 YYZ   0.000000   0.025737  -0.000000  -0.013644   0.000000
   83  O  3 ZZX   0.011120   0.000000  -0.000000   0.000000  -0.007701
   84  O  3 ZZY   0.000000   0.000000  -0.003822   0.000000   0.000000
   85  O  3 XYZ   0.000000   0.000000  -0.000000   0.000000   0.000000
   86  O  3  S    0.000000  -2.587295  -0.000000  -0.186723   0.000000
   87  O  3  X    0.276384   0.000000  -0.000000   0.000000  -0.267678
   88  O  3  Y    0.000000   0.000000  -0.357259   0.000000   0.000000
   89  O  3  Z    0.000000  -0.251345  -0.000000   0.322029   0.000000
   90  O  3 XX    0.000000  -1.819663  -0.000000  -1.275477   0.000000
   91  O  3 YY    0.000000   1.708736  -0.000000   0.597936   0.000000
   92  O  3 ZZ    0.000000   0.110927  -0.000000   0.677541   0.000000
   93  O  3 XY    0.000000   0.000000  -0.000000   0.000000   0.000000
   94  O  3 XZ    0.346121   0.000000  -0.000000   0.000000  -0.723580
   95  O  3 YZ    0.000000   0.000000  -0.483468   0.000000   0.000000
   96  O  3 XXX  -0.126992   0.000000  -0.000000   0.000000   0.030130
   97  O  3 YYY   0.000000   0.000000   0.043436   0.000000   0.000000
   98  O  3 ZZZ   0.000000   0.133341  -0.000000  -0.070945   0.000000
   99  O  3 XXY   0.000000   0.000000  -0.076009   0.000000   0.000000
  100  O  3 XXZ   0.000000   0.149420  -0.000000   0.034608   0.000000
  101  O  3 YYX   0.228154   0.000000  -0.000000   0.000000  -0.081414
  102  O  3 YYZ   0.000000  -0.328316  -0.000000   0.060574   0.000000
  103  O  3 ZZX  -0.057776   0.000000  -0.000000   0.000000   0.040991
  104  O  3 ZZY   0.000000   0.000000   0.017733   0.000000   0.000000
  105  O  3 XYZ   0.000000   0.000000  -0.000000   0.000000   0.000000

                     36         37         38         39         40
                    1.0891     1.0932     1.1154     1.3616     1.5013
                     A          A          A          A          A   
    1  H  1  S    0.015031   0.000000   0.006978   0.008466   0.025356
    2  H  1  S   -0.167758   0.000000   0.452400   6.549334   6.102509
    3  H  1  S   -2.665059   0.000000  -3.487079   4.960883   3.596800
    4  H  1  X   -0.000000   0.004443   0.000000  -0.000000  -0.000000
    5  H  1  Y   -0.010621   0.000000  -0.017059  -0.024790   0.012037
    6  H  1  Z    0.005030   0.000000   0.015039   0.033263  -0.029610
    7  H  1  X   -0.000000   0.135167   0.000000  -0.000000  -0.000000
    8  H  1  Y   -0.445196   0.000000  -0.199730   2.419329   1.056625
    9  H  1  Z   -0.441781   0.000000  -0.622737  -0.198581   1.927454
   10  H  1 XX    0.029585   0.000000  -0.003832  -0.065605  -0.065720
   11  H  1 YY   -0.055354   0.000000   0.008379   0.100189   0.040419
   12  H  1 ZZ    0.025769   0.000000  -0.004546  -0.034584   0.025301
   13  H  1 XY   -0.000000  -0.023551   0.000000  -0.000000  -0.000000
   14  H  1 XZ   -0.000000   0.020500   0.000000  -0.000000  -0.000000
   15  H  1 YZ   -0.019953   0.000000  -0.069457   0.030521   0.067371
   16  H  1  S   -0.154253   0.000000  -0.225619   0.510213   0.374684
   17  H  1  X   -0.000000   0.531271   0.000000  -0.000000  -0.000000
   18  H  1  Y   -0.492764   0.000000  -1.746665   1.130346  -0.113319
   19  H  1  Z   -0.365811   0.000000  -0.119970   0.058623   1.243481
   20  H  1 XX   -0.154105   0.000000   0.577508   0.500144   0.637325
   21  H  1 YY    0.615564   0.000000  -0.491261   0.227633  -1.460307
   22  H  1 ZZ   -0.461459   0.000000  -0.086247  -0.727777   0.822982
   23  H  1 XY   -0.000000   1.168567   0.000000  -0.000000  -0.000000
   24  H  1 XZ   -0.000000  -0.121505   0.000000  -0.000000  -0.000000
   25  H  1 YZ   -0.495466   0.000000   0.590827  -0.428290   0.690624
   26  H  2  S    0.015031   0.000000  -0.006978  -0.008466  -0.025356
   27  H  2  S   -0.167758   0.000000  -0.452400  -6.549334  -6.102509
   28  H  2  S   -2.665059   0.000000   3.487079  -4.960883  -3.596800
   29  H  2  X   -0.000000  -0.004443   0.000000  -0.000000  -0.000000
   30  H  2  Y    0.010621   0.000000  -0.017059  -0.024790   0.012037
   31  H  2  Z    0.005030   0.000000  -0.015039  -0.033263   0.029610
   32  H  2  X   -0.000000  -0.135167   0.000000  -0.000000  -0.000000
   33  H  2  Y    0.445196   0.000000  -0.199730   2.419329   1.056625
   34  H  2  Z   -0.441781   0.000000   0.622737   0.198581  -1.927454
   35  H  2 XX    0.029585   0.000000   0.003832   0.065605   0.065720
   36  H  2 YY   -0.055354   0.000000  -0.008379  -0.100189  -0.040419
   37  H  2 ZZ    0.025769   0.000000   0.004546   0.034584  -0.025301
   38  H  2 XY   -0.000000  -0.023551   0.000000  -0.000000  -0.000000
   39  H  2 XZ   -0.000000  -0.020500   0.000000  -0.000000  -0.000000
   40  H  2 YZ    0.019953   0.000000  -0.069457   0.030521   0.067371
   41  H  2  S   -0.154253   0.000000   0.225619  -0.510213  -0.374684
   42  H  2  X   -0.000000  -0.531271   0.000000  -0.000000  -0.000000
   43  H  2  Y    0.492764   0.000000  -1.746665   1.130346  -0.113319
   44  H  2  Z   -0.365811   0.000000   0.119970  -0.058623  -1.243481
   45  H  2 XX   -0.154105   0.000000  -0.577508  -0.500144  -0.637325
   46  H  2 YY    0.615564   0.000000   0.491261  -0.227633   1.460307
   47  H  2 ZZ   -0.461459   0.000000   0.086247   0.727777  -0.822982
   48  H  2 XY   -0.000000   1.168567   0.000000  -0.000000  -0.000000
   49  H  2 XZ   -0.000000   0.121505   0.000000  -0.000000  -0.000000
   50  H  2 YZ    0.495466   0.000000   0.590827  -0.428290   0.690624
   51  O  3  S   -0.012180   0.000000   0.000000  -0.000000  -0.000000
   52  O  3  S    0.008873   0.000000   0.000000  -0.000000  -0.000000
   53  O  3  S   -0.033679   0.000000   0.000000  -0.000000  -0.000000
   54  O  3  S    1.777108   0.000000  -0.000000  -0.000000  -0.000000
   55  O  3  X   -0.000000   0.000000   0.000000  -0.000000  -0.000000
   56  O  3  Y   -0.000000   0.000000   0.136132  -0.056398  -0.013087
[...]
   76  O  3 XXX   0.000000   0.000000   0.000000   0.004612   0.000000
   77  O  3 YYY   0.000000   0.000367  -0.000000   0.000000   0.000000
   78  O  3 ZZZ  -0.000679   0.000000  -0.001963   0.000000  -0.001350
   79  O  3 XXY   0.000000   0.000476   0.000000   0.000000   0.000000
   80  O  3 XXZ  -0.000710  -0.000000  -0.000842   0.000000  -0.002511
   81  O  3 YYX   0.000000   0.000000   0.000000  -0.003660   0.000000
   82  O  3 YYZ   0.001621   0.000000   0.003476   0.000000   0.004323
   83  O  3 ZZX   0.000000   0.000000   0.000000  -0.002528   0.000000
   84  O  3 ZZY   0.000000  -0.000968   0.000000   0.000000  -0.000000
   85  O  3 XYZ   0.000000   0.000000   0.000000   0.000000   0.000000
   86  O  3  S   -2.385258  -0.000000  -6.723762   0.000000  -4.006928
   87  O  3  X    0.000000   0.000000   0.000000   1.822987   0.000000
   88  O  3  Y    0.000000  -1.132129   0.000000   0.000000  -0.000000
   89  O  3  Z    0.222103  -0.000000   2.057298   0.000000  -0.923143
   90  O  3 XX    0.047282  -0.000000   0.095055   0.000000   0.024543
   91  O  3 YY   -0.048655  -0.000000  -0.008669   0.000000  -0.146355
   92  O  3 ZZ    0.001373   0.000000  -0.086386   0.000000   0.121812
   93  O  3 XY    0.000000   0.000000   0.000000   0.000000   0.000000
   94  O  3 XZ    0.000000   0.000000   0.000000  -0.205089   0.000000
   95  O  3 YZ    0.000000   0.127384   0.000000   0.000000   0.000000
   96  O  3 XXX   0.000000   0.000000   0.000000  -0.013798   0.000000
   97  O  3 YYY   0.000000  -0.004744   0.000000   0.000000   0.000000
   98  O  3 ZZZ  -0.004590  -0.000000   0.004419   0.000000  -0.019996
   99  O  3 XXY   0.000000   0.010882   0.000000   0.000000   0.000000
  100  O  3 XXZ  -0.006624   0.000000   0.000717   0.000000  -0.008556
  101  O  3 YYX   0.000000   0.000000   0.000000   0.009544   0.000000
  102  O  3 YYZ   0.012782   0.000000  -0.006645   0.000000   0.035384
  103  O  3 ZZX   0.000000   0.000000   0.000000   0.008968   0.000000
  104  O  3 ZZY  -0.000000  -0.004517  -0.000000   0.000000  -0.000000
  105  O  3 XYZ   0.000000   0.000000   0.000000   0.000000   0.000000

                     11         12         13         14         15
                    0.1831     0.2271     0.2449     0.2654     0.3000
                     A          A          A          A          A   
    1  H  1  S    0.000329  -0.040873  -0.031630   0.000000   0.000000
    2  H  1  S   -0.908333  -0.672007  -0.140462   0.000000   0.000000
    3  H  1  S   -4.878321   0.008525  -1.423596   0.000000   0.000000
    4  H  1  X    0.000000   0.000000   0.000000  -0.001406   0.007168
    5  H  1  Y   -0.010968   0.000306  -0.004703   0.000000   0.000000
    6  H  1  Z   -0.004849   0.009126   0.005905   0.000000   0.000000
    7  H  1  X    0.000000   0.000000   0.000000   0.278916  -0.337489
    8  H  1  Y   -0.246725  -0.000304   0.176196   0.000000   0.000000
    9  H  1  Z   -0.257913   0.022637  -0.279559   0.000000   0.000000
   10  H  1 XX    0.011798   0.000958  -0.004382   0.000000   0.000000
   11  H  1 YY   -0.010066  -0.002564   0.008015   0.000000   0.000000
   12  H  1 ZZ   -0.001732   0.001606  -0.003633   0.000000   0.000000
   13  H  1 XY    0.000000   0.000000   0.000000   0.004628  -0.007793
   14  H  1 XZ    0.000000   0.000000   0.000000   0.003260  -0.005878
   15  H  1 YZ   -0.016955   0.002549  -0.009779   0.000000   0.000000
   16  H  1  S   -3.347778  -0.071494  -0.092944   0.000000   0.000000
   17  H  1  X    0.000000   0.000000   0.000000   1.791909  -1.897804
   18  H  1  Y   -1.117395   1.291073   0.882358   0.000000   0.000000
   19  H  1  Z   -1.209377   0.785443  -1.075563   0.000000   0.000000
   20  H  1 XX    0.016318  -0.158765   0.010584   0.000000   0.000000
   21  H  1 YY    0.032467   0.108986   0.246485   0.000000   0.000000
   22  H  1 ZZ   -0.048785   0.049779  -0.257069   0.000000   0.000000
   23  H  1 XY    0.000000   0.000000   0.000000   0.248516  -0.308478
   24  H  1 XZ    0.000000   0.000000   0.000000   0.222055  -0.193114
   25  H  1 YZ   -0.095413   0.150705  -0.025328   0.000000   0.000000
   26  H  2  S   -0.000329   0.040873  -0.031630   0.000000   0.000000
   27  H  2  S    0.908333   0.672007  -0.140462   0.000000   0.000000
   28  H  2  S    4.878321  -0.008525  -1.423596   0.000000   0.000000
   29  H  2  X    0.000000   0.000000   0.000000   0.001406   0.007168
   30  H  2  Y   -0.010968   0.000306   0.004703   0.000000   0.000000
   31  H  2  Z    0.004849  -0.009126   0.005905   0.000000   0.000000
   32  H  2  X    0.000000   0.000000   0.000000  -0.278916  -0.337489
   33  H  2  Y   -0.246725  -0.000304  -0.176196   0.000000   0.000000
   34  H  2  Z    0.257913  -0.022637  -0.279559   0.000000   0.000000
   35  H  2 XX   -0.011798  -0.000958  -0.004382   0.000000   0.000000
   36  H  2 YY    0.010066   0.002564   0.008015   0.000000   0.000000
   37  H  2 ZZ    0.001732  -0.001606  -0.003633   0.000000   0.000000
   38  H  2 XY    0.000000   0.000000   0.000000   0.004628   0.007793
   39  H  2 XZ    0.000000   0.000000   0.000000  -0.003260  -0.005878
   40  H  2 YZ   -0.016955   0.002549   0.009779   0.000000   0.000000
   41  H  2  S    3.347778   0.071494  -0.092944   0.000000   0.000000
   42  H  2  X    0.000000   0.000000   0.000000  -1.791909  -1.897804
   43  H  2  Y   -1.117395   1.291073  -0.882358   0.000000   0.000000
   44  H  2  Z    1.209377  -0.785443  -1.075563   0.000000   0.000000
   45  H  2 XX   -0.016318   0.158765   0.010584   0.000000   0.000000
   46  H  2 YY   -0.032467  -0.108986   0.246485   0.000000   0.000000
   47  H  2 ZZ    0.048785  -0.049779  -0.257069   0.000000   0.000000
   48  H  2 XY    0.000000   0.000000   0.000000   0.248516   0.308478
   49  H  2 XZ    0.000000   0.000000   0.000000  -0.222055  -0.193114
   50  H  2 YZ   -0.095413   0.150705   0.025328   0.000000   0.000000
   51  O  3  S   -0.000000   0.000000  -0.010666   0.000000   0.000000
   52  O  3  S   -0.000000  -0.000000  -0.014523   0.000000   0.000000
   53  O  3  S   -0.000000   0.000000  -0.004325   0.000000   0.000000
   54  O  3  S    0.000000  -0.000000   0.168267   0.000000   0.000000
   55  O  3  X    0.000000   0.000000   0.000000  -0.000000   0.085297
   56  O  3  Y    0.094169  -0.067368   0.000000   0.000000   0.000000
   57  O  3  Z    0.000000   0.000000  -0.000190   0.000000   0.000000
   58  O  3  X    0.000000   0.000000   0.000000   0.000000   0.052555
   59  O  3  Y    0.000952  -0.032033   0.000000   0.000000   0.000000
   60  O  3  Z   -0.000000   0.000000  -0.000669   0.000000   0.000000
   61  O  3  X    0.000000   0.000000   0.000000  -0.000000   1.938950
   62  O  3  Y   -1.615067  -0.815953   0.000000   0.000000   0.000000
   63  O  3  Z   -0.000000   0.000000   0.788318   0.000000   0.000000
   64  O  3 XX    0.000000  -0.000000   0.000444   0.000000   0.000000
   65  O  3 YY    0.000000   0.000000  -0.006913   0.000000   0.000000
   66  O  3 ZZ   -0.000000   0.000000   0.006469   0.000000   0.000000
   67  O  3 XY    0.000000   0.000000   0.000000  -0.005282   0.000000
   68  O  3 XZ    0.000000   0.000000   0.000000   0.000000   0.006387
   69  O  3 YZ   -0.004084  -0.003909   0.000000   0.000000   0.000000
   70  O  3 XX   -0.000000   0.000000   0.006178   0.000000   0.000000
   71  O  3 YY    0.000000  -0.000000   0.028751   0.000000   0.000000
   72  O  3 ZZ    0.000000  -0.000000  -0.034929   0.000000   0.000000
   73  O  3 XY    0.000000   0.000000   0.000000   0.012805   0.000000
   74  O  3 XZ    0.000000   0.000000   0.000000  -0.000000  -0.033262
   75  O  3 YZ    0.089148  -0.018076  -0.000000   0.000000   0.000000
   76  O  3 XXX   0.000000   0.000000   0.000000   0.000000   0.010034
   77  O  3 YYY   0.002583  -0.001445   0.000000   0.000000   0.000000
   78  O  3 ZZZ   0.000000  -0.000000  -0.006016   0.000000   0.000000
   79  O  3 XXY  -0.000370  -0.006901  -0.000000   0.000000   0.000000
   80  O  3 XXZ  -0.000000   0.000000   0.002248   0.000000   0.000000
   81  O  3 YYX   0.000000   0.000000   0.000000   0.000000  -0.007249
   82  O  3 YYZ  -0.000000   0.000000   0.005823   0.000000   0.000000
   83  O  3 ZZX   0.000000   0.000000   0.000000   0.000000  -0.006213
   84  O  3 ZZY  -0.003095   0.008839   0.000000   0.000000   0.000000
   85  O  3 XYZ   0.000000   0.000000   0.000000   0.011868   0.000000
   86  O  3  S    0.000000  -0.000000   2.668035   0.000000   0.000000
   87  O  3  X    0.000000   0.000000   0.000000  -0.000000   1.923532
   88  O  3  Y   -3.622535  -1.701858  -0.000000   0.000000   0.000000
   89  O  3  Z    0.000000   0.000000   0.580038   0.000000   0.000000
   90  O  3 XX   -0.000000   0.000000  -0.133038   0.000000   0.000000
   91  O  3 YY   -0.000000   0.000000   0.772807   0.000000   0.000000
   92  O  3 ZZ    0.000000  -0.000000  -0.639769   0.000000   0.000000
   93  O  3 XY    0.000000   0.000000   0.000000   0.692990   0.000000
   94  O  3 XZ    0.000000   0.000000   0.000000   0.000000  -0.569621
   95  O  3 YZ    0.463798   0.691914  -0.000000   0.000000   0.000000
   96  O  3 XXX   0.000000   0.000000   0.000000   0.000000  -0.096182
   97  O  3 YYY  -0.014233   0.011282  -0.000000   0.000000   0.000000
   98  O  3 ZZZ  -0.000000   0.000000   0.063873   0.000000   0.000000
   99  O  3 XXY   0.034951   0.043722  -0.000000   0.000000   0.000000
  100  O  3 XXZ   0.000000  -0.000000  -0.020122   0.000000   0.000000
  101  O  3 YYX   0.000000   0.000000   0.000000  -0.000000   0.081247
  102  O  3 YYZ  -0.000000   0.000000  -0.065572   0.000000   0.000000
  103  O  3 ZZX   0.000000   0.000000   0.000000  -0.000000   0.047794
  104  O  3 ZZY  -0.015855  -0.058858   0.000000   0.000000   0.000000
  105  O  3 XYZ   0.000000   0.000000   0.000000  -0.097299  -0.000000

     -------------------------------------------------
     MP2 PROPERTIES...FOR THE FIRST ORDER WAVEFUNCTION
          USING THE RESPONSE (OR RELAXED) DENSITY
     -------------------------------------------------

          -----------------
          ENERGY COMPONENTS
          -----------------

         WAVEFUNCTION NORMALIZATION =       1.0000000000

                ONE ELECTRON ENERGY =    -122.6995331663
                TWO ELECTRON ENERGY =      37.2144946489
           NUCLEAR REPULSION ENERGY =       9.1560461162
                                      ------------------
                       TOTAL ENERGY =     -76.3289924012

 ELECTRON-ELECTRON POTENTIAL ENERGY =      37.2144946489
  NUCLEUS-ELECTRON POTENTIAL ENERGY =    -198.9548784955
   NUCLEUS-NUCLEUS POTENTIAL ENERGY =       9.1560461162
                                      ------------------
             TOTAL POTENTIAL ENERGY =    -152.5843377304
               TOTAL KINETIC ENERGY =      76.2553453292
                 VIRIAL RATIO (V/T) =       2.0009657955

          ---------------------------------------
          MULLIKEN AND LOWDIN POPULATION ANALYSES
          ---------------------------------------

               ----- POPULATIONS IN EACH AO -----
                             MULLIKEN      LOWDIN
              1  H  1  S      0.24823     0.16743
              2  H  1  S      0.39158     0.14612
              3  H  1  S      0.01956     0.04832
              4  H  1  X      0.00504     0.00778
              5  H  1  Y      0.00867     0.01622
              6  H  1  Z      0.00712     0.01474
              7  H  1  X      0.03134     0.06294
              8  H  1  Y      0.00948     0.06098
              9  H  1  Z      0.01453     0.07226
             10  H  1 XX      0.00121     0.04098
             11  H  1 YY      0.00083     0.08751
             12  H  1 ZZ      0.00168     0.07253
             13  H  1 XY      0.00096     0.00967
             14  H  1 XZ      0.00171     0.00558
             15  H  1 YZ      0.00000     0.01765
             16  H  1  S     -0.00120     0.00542
             17  H  1  X      0.02479     0.05706
             18  H  1  Y      0.00123     0.04659
             19  H  1  Z      0.00900     0.05610
             20  H  1 XX      0.00192     0.00927
             21  H  1 YY      0.00065     0.05526
             22  H  1 ZZ      0.00473     0.03604
             23  H  1 XY      0.00206     0.03594
             24  H  1 XZ      0.00008     0.02044
             25  H  1 YZ      0.00000     0.04719
             26  H  2  S      0.24823     0.16743
             27  H  2  S      0.39158     0.14612
             28  H  2  S      0.01956     0.04832
             29  H  2  X      0.00504     0.00778
             30  H  2  Y      0.00867     0.01622
             31  H  2  Z      0.00712     0.01474
             32  H  2  X      0.03134     0.06294
             33  H  2  Y      0.00948     0.06098
             34  H  2  Z      0.01453     0.07226
             35  H  2 XX      0.00121     0.04098
             36  H  2 YY      0.00083     0.08751
             37  H  2 ZZ      0.00168     0.07253
             38  H  2 XY      0.00096     0.00967
             39  H  2 XZ      0.00171     0.00558
             40  H  2 YZ      0.00000     0.01765
             41  H  2  S     -0.00120     0.00542
             42  H  2  X      0.02479     0.05706
             43  H  2  Y      0.00123     0.04659
             44  H  2  Z      0.00900     0.05610
             45  H  2 XX      0.00192     0.00927
             46  H  2 YY      0.00065     0.05526
             47  H  2 ZZ      0.00473     0.03604
             48  H  2 XY      0.00206     0.03594
             49  H  2 XZ      0.00008     0.02044
             50  H  2 YZ      0.00000     0.04719
             51  O  3  S      1.94920     1.54826
             52  O  3  S      0.99610     0.49853
             53  O  3  S      0.23967     0.33063
             54  O  3  S      0.62262     0.16930
             55  O  3  X      0.49952     0.44895
             56  O  3  Y      0.36576     0.30661
             57  O  3  Z      0.42003     0.36747
             58  O  3  X      0.79263     0.32460
             59  O  3  Y      0.59831     0.26347
             60  O  3  Z      0.68086     0.29859
             61  O  3  X      0.51479     0.18777
             62  O  3  Y      0.24036     0.15497
             63  O  3  Z      0.34246     0.17767
             64  O  3 XX      0.00185     0.11261
             65  O  3 YY      0.00194     0.11034
             66  O  3 ZZ      0.00162     0.10947
             67  O  3 XY      0.00190     0.00171
             68  O  3 XZ      0.00336     0.00188
             69  O  3 YZ      0.00000     0.00268
             70  O  3 XX      0.00569     0.07838
             71  O  3 YY      0.00508     0.09231
             72  O  3 ZZ      0.00383     0.08545
             73  O  3 XY      0.00519     0.00283
             74  O  3 XZ      0.01244     0.00299
             75  O  3 YZ      0.00000     0.02302
             76  O  3 XXX     0.00042     0.20012
             77  O  3 YYY     0.00076     0.15769
             78  O  3 ZZZ     0.00035     0.17633
             79  O  3 XXY     0.00035     0.06110
             80  O  3 XXZ     0.00034     0.07447
             81  O  3 YYX     0.00035     0.08927
             82  O  3 YYZ     0.00054     0.09618
             83  O  3 ZZX     0.00000     0.08913
             84  O  3 ZZY     0.00000     0.08202
             85  O  3 XYZ     0.00000     0.00032
             86  O  3  S      0.05871     0.03881
             87  O  3  X      0.03764     0.04073
             88  O  3  Y      0.00625     0.02417
             89  O  3  Z      0.01428     0.03460
             90  O  3 XX      0.00158     0.00942
             91  O  3 YY     -0.00128     0.01768
             92  O  3 ZZ      0.00071     0.01290
             93  O  3 XY      0.00165     0.00082
             94  O  3 XZ     -0.00034     0.00084
             95  O  3 YZ      0.00000     0.01721
             96  O  3 XXX     0.00027     0.11143
             97  O  3 YYY     0.00028     0.11515
             98  O  3 ZZZ     0.00026     0.11291
             99  O  3 XXY     0.00014     0.03527
            100  O  3 XXZ     0.00045     0.04437
            101  O  3 YYX     0.00020     0.04969
            102  O  3 YYZ     0.00044     0.08258
            103  O  3 ZZX     0.00000     0.05040
            104  O  3 ZZY     0.00000     0.07363
            105  O  3 XYZ     0.00000     0.00026

          ----- MULLIKEN ATOMIC OVERLAP POPULATIONS -----
          (OFF-DIAGONAL ELEMENTS NEED TO BE MULTIPLIED BY 2)

             1           2           3

    1    0.5623144
    2    0.0135147   0.5623144
    3    0.2093818   0.2093818   8.0108148

          TOTAL MULLIKEN AND LOWDIN ATOMIC POPULATIONS
       ATOM         MULL.POP.    CHARGE          LOW.POP.     CHARGE
    1 H             0.785211    0.214789         1.200003   -0.200003
    2 H             0.785211    0.214789         1.200003   -0.200003
    3 O             8.429578   -0.429578         7.599994    0.400006

          MULLIKEN SPHERICAL HARMONIC POPULATIONS
       ATOM           S       P       D      F      G      H      I    TOTAL
    1 H             0.66    0.11    0.02   0.00   0.00   0.00   0.00    0.79
    2 H             0.66    0.11    0.02   0.00   0.00   0.00   0.00    0.79
    3 O             3.87    4.51    0.05   0.01   0.00   0.00   0.00    8.43

          -------------------------------
          BOND ORDER AND VALENCE ANALYSIS     BOND ORDER THRESHOLD=0.050
          -------------------------------

                   BOND                       BOND                       BOND
  ATOM PAIR DIST  ORDER      ATOM PAIR DIST  ORDER      ATOM PAIR DIST  ORDER
    1   3  0.961  0.956        2   3  0.961  0.956

                       TOTAL       BONDED        FREE
      ATOM            VALENCE     VALENCE     VALENCE
    1 H                 1.056       0.990       0.066
    2 H                 1.056       0.990       0.066
    3 O                 2.275       1.912       0.363

          ---------------------
          ELECTROSTATIC MOMENTS
          ---------------------

 POINT   1           X           Y           Z (BOHR)    CHARGE
                -0.000000    0.000000    0.934682        0.00 (A.U.)
         DX          DY          DZ         /D/  (DEBYE)
     0.000000   -0.000000   -1.859447    1.859447
 ...... END OF PROPERTY EVALUATION ......
 CPU     0: STEP CPU TIME=     0.03 TOTAL CPU TIME=      122.2 (    2.0 MIN)
 TOTAL WALL CLOCK TIME=      122.9 SECONDS, CPU UTILIZATION IS  99.43%
  $VIB   
          IVIB=   0 IATOM=   0 ICOORD=   0 E=      -76.3289924012
  0.000000000E+00 0.000000000E+00 0.000000000E+00 0.000000000E+00 0.000000000E+00
  0.000000000E+00 0.000000000E+00 0.000000000E+00 0.000000000E+00
  1.012524990E-17-5.735325619E-10-1.859447370E+00
 ......END OF GEOMETRY SEARCH......
 CPU     0: STEP CPU TIME=     0.00 TOTAL CPU TIME=      122.2 (    2.0 MIN)
 TOTAL WALL CLOCK TIME=      122.9 SECONDS, CPU UTILIZATION IS  99.43%
               647102  WORDS OF DYNAMIC MEMORY USED
 EXECUTION OF GAMESS TERMINATED NORMALLY Sun Mar  6 23:46:50 2016
 DDI: 1438848 bytes (1.4 MB / 0 MWords) used by master data server.

 ----------------------------------------
 CPU timing information for all processes
 ========================================
 0: 120.681 + 1.553 = 122.234
 1: 120.332 + 1.452 = 121.785
 ----------------------------------------
 ddikick.x: exited gracefully.
----- accounting info -----
Files used on the master node Clevo were:
-rw-r--r-- 1 sagar sagar   587749 Mar  6 23:46 /tmp/H2O_RHF_MP2_augccpVTZ_geometry.dat
-rw-r--r-- 1 sagar sagar      194 Mar  6 23:44 /tmp/H2O_RHF_MP2_augccpVTZ_geometry.F05
-rw-r--r-- 1 sagar sagar 43383856 Mar  6 23:46 /tmp/H2O_RHF_MP2_augccpVTZ_geometry.F08
-rw-r--r-- 1 sagar sagar 43923904 Mar  6 23:46 /tmp/H2O_RHF_MP2_augccpVTZ_geometry.F08.001
-rw-r--r-- 1 sagar sagar  2519440 Mar  6 23:46 /tmp/H2O_RHF_MP2_augccpVTZ_geometry.F10
Sun Mar  6 23:46:53 WET 2016
0.086u 0.071s 2:06.09 0.1%	0+0k 0+16io 0pf+0w
