----- GAMESS execution script 'rungms' -----
This job is running on host Clevo
under operating system Linux at Sun Mar 6 22:58:35 WET 2016
Available scratch disk space (Kbyte units) at beginning of the job is
Filesystem                                             1K-blocks     Used Available Use% Mounted on
/dev/disk/by-uuid/c2905ecd-da6a-4deb-abcc-9980c215dfc9  34319120 18791908  13760812  58% /
GAMESS temporary binary files will be written to /tmp
GAMESS supplementary output files will be written to .
Copying input file H2O_RHF_631G_hessian.inp to your run's scratch directory...

 Distributed Data Interface kickoff program.
 Initiating 2 compute processes on 1 nodes to run the following command:
 /home/sagar/gamess/gamess.01.x H2O_RHF_631G_hessian 

          ******************************************************
          *         GAMESS VERSION =  5 DEC 2014 (R1)          *
          *             FROM IOWA STATE UNIVERSITY             *
          * M.W.SCHMIDT, K.K.BALDRIDGE, J.A.BOATZ, S.T.ELBERT, *
          *   M.S.GORDON, J.H.JENSEN, S.KOSEKI, N.MATSUNAGA,   *
          *          K.A.NGUYEN, S.J.SU, T.L.WINDUS,           *
          *       TOGETHER WITH M.DUPUIS, J.A.MONTGOMERY       *
          *         J.COMPUT.CHEM.  14, 1347-1363(1993)        *
          **************** 64 BIT LINUX VERSION ****************

  SINCE 1993, STUDENTS AND POSTDOCS WORKING AT IOWA STATE UNIVERSITY
  AND ALSO IN THEIR VARIOUS JOBS AFTER LEAVING ISU HAVE MADE IMPORTANT
  CONTRIBUTIONS TO THE CODE:
     IVANA ADAMOVIC, CHRISTINE AIKENS, YURI ALEXEEV, POOJA ARORA,
     ANDREY ASADCHEV, ROB BELL, PRADIPTA BANDYOPADHYAY, JONATHAN BENTZ,
     BRETT BODE, KURT BRORSEN, CALEB CARLIN, GALINA CHABAN, WEI CHEN,
     CHEOL HO CHOI, PAUL DAY, ALBERT DEFUSCO, NUWAN DESILVA, TIM DUDLEY,
     DMITRI FEDOROV, GRAHAM FLETCHER, MARK FREITAG, KURT GLAESEMANN,
     DAN KEMP, GRANT MERRILL, NORIYUKI MINEZAWA, JONATHAN MULLIN,
     TAKESHI NAGATA, SEAN NEDD, HEATHER NETZLOFF, BOSILJKA NJEGIC, RYAN OLSON,
     MIKE PAK, SPENCER PRUITT, LUKE ROSKOP, JIM SHOEMAKER, LYUDMILA SLIPCHENKO,
     TONY SMITH, SAROM SOK, JIE SONG, TETSUYA TAKETSUGU, SIMON WEBB,
     PENG XU, SOOHAENG YOO, FEDERICO ZAHARIEV

  ADDITIONAL CODE HAS BEEN PROVIDED BY COLLABORATORS IN OTHER GROUPS:
     IOWA STATE UNIVERSITY:
          JOE IVANIC, AARON WEST, LAIMUTIS BYTAUTAS, KLAUS RUEDENBERG
     UNIVERSITY OF TOKYO: KIMIHIKO HIRAO, TAKAHITO NAKAJIMA,
          TAKAO TSUNEDA, MUNEAKI KAMIYA, SUSUMU YANAGISAWA,
          KIYOSHI YAGI, MAHITO CHIBA, SEIKEN TOKURA, NAOAKI KAWAKAMI
     UNIVERSITY OF AARHUS: FRANK JENSEN
     UNIVERSITY OF IOWA: VISVALDAS KAIRYS, HUI LI
     NATIONAL INST. OF STANDARDS AND TECHNOLOGY: WALT STEVENS, DAVID GARMER
     UNIVERSITY OF PISA: BENEDETTA MENNUCCI, JACOPO TOMASI
     UNIVERSITY OF MEMPHIS: HENRY KURTZ, PRAKASHAN KORAMBATH
     UNIVERSITY OF ALBERTA: TOBY ZENG, MARIUSZ KLOBUKOWSKI
     UNIVERSITY OF NEW ENGLAND: MARK SPACKMAN
     MIE UNIVERSITY: HIROAKI UMEDA
     NAT. INST. OF ADVANCED INDUSTRIAL SCIENCE AND TECHNOLOGY: KAZUO KITAURA
     MICHIGAN STATE UNIVERSITY:
          KAROL KOWALSKI, MARTA WLOCH, JEFFREY GOUR, JESSE LUTZ,
          WEI LI, PIOTR PIECUCH
     UNIVERSITY OF SILESIA: MONIKA MUSIAL, STANISLAW KUCHARSKI
     FACULTES UNIVERSITAIRES NOTRE-DAME DE LA PAIX:
          OLIVIER QUINET, BENOIT CHAMPAGNE
     UNIVERSITY OF CALIFORNIA - SANTA BARBARA: BERNARD KIRTMAN
     INSTITUTE FOR MOLECULAR SCIENCE:
          KAZUYA ISHIMURA, MICHIO KATOUDA, AND SHIGERU NAGASE
     UNIVERSITY OF NOTRE DAME: ANNA POMOGAEVA, DAN CHIPMAN
     KYUSHU UNIVERSITY:
          HARUYUKI NAKANO,
          FENG LONG GU, JACEK KORCHOWIEC, MARCIN MAKOWSKI, AND YURIKO AOKI,
          HIROTOSHI MORI AND EISAKU MIYOSHI
     PENNSYLVANIA STATE UNIVERSITY:
          TZVETELIN IORDANOV, CHET SWALINA, JONATHAN SKONE,
          SHARON HAMMES-SCHIFFER
     WASEDA UNIVERSITY:
          MASATO KOBAYASHI, TOMOKO AKAMA, TSUGUKI TOUMA,
          TAKESHI YOSHIKAWA, YASUHIRO IKABATA, HIROMI NAKAI
     NANJING UNIVERSITY: SHUHUA LI
     UNIVERSITY OF NEBRASKA:
          PEIFENG SU, DEJUN SI, NANDUN THELLAMUREGE, YALI WANG, HUI LI
     UNIVERSITY OF ZURICH: ROBERTO PEVERATI, KIM BALDRIDGE
     N. COPERNICUS UNIVERSITY AND JACKSON STATE UNIVERSITY:
          MARIA BARYSZ
     UNIVERSITY OF COPENHAGEN: CASPER STEINMANN
     TOKYO INSTITUTE OF TECHNOLOGY: HIROYA NAKATA
     NAGOYA UNIVERSITY: YOSHIO NISHIMOTO, STEPHAN IRLE


 PARALLEL VERSION RUNNING ON        2 PROCESSORS IN        1 NODES.

 EXECUTION OF GAMESS BEGUN Sun Mar  6 22:58:35 2016

            ECHO OF THE FIRST FEW INPUT CARDS -
 INPUT CARD> $CONTRL SCFTYP=RHF RUNTYP=HESSIAN $END                                         
 INPUT CARD> $STATPT OPTTOL=1E-12 NSTEP=1000 $END                                           
 INPUT CARD> $BASIS GBASIS=N31 NGAUSS=6 $END                                                
 INPUT CARD> $DATA                                                                          
 INPUT CARD>H2O                                                                             
 INPUT CARD>C1                                                                              
 INPUT CARD> H 1 0.0000000000 -0.7851665853 -0.0113820087                                   
 INPUT CARD> H 1 0.0000000000 0.7851665853 -0.0113820087                                    
 INPUT CARD> O 8 0.0000000000 0.0000000000 0.5227640173                                     
 INPUT CARD> $END                                                                           
    1000000 WORDS OF MEMORY AVAILABLE

     BASIS OPTIONS
     -------------
     GBASIS=N31          IGAUSS=       6      POLAR=NONE    
     NDFUNC=       0     NFFUNC=       0     DIFFSP=       F
     NPFUNC=       0      DIFFS=       F     BASNAM=        


     RUN TITLE
     ---------
 H2O                                                                             

 THE POINT GROUP OF THE MOLECULE IS C1      
 THE ORDER OF THE PRINCIPAL AXIS IS     0

 ATOM      ATOMIC                      COORDINATES (BOHR)
           CHARGE         X                   Y                   Z
 H           1.0     0.0000000000       -1.4837497009       -0.0215088776
 H           1.0     0.0000000000        1.4837497009       -0.0215088776
 O           8.0     0.0000000000        0.0000000000        0.9878807489

          INTERNUCLEAR DISTANCES (ANGS.)
          ------------------------------

                1 H          2 H          3 O     

   1 H       0.0000000    1.5703332 *  0.9496307 *
   2 H       1.5703332 *  0.0000000    0.9496307 *
   3 O       0.9496307 *  0.9496307 *  0.0000000  

  * ... LESS THAN  3.000


     ATOMIC BASIS SET
     ----------------
 THE CONTRACTED PRIMITIVE FUNCTIONS HAVE BEEN UNNORMALIZED
 THE CONTRACTED BASIS FUNCTIONS ARE NOW NORMALIZED TO UNITY

  SHELL TYPE  PRIMITIVE        EXPONENT          CONTRACTION COEFFICIENT(S)

 H         

      1   S       1            18.7311370    0.033494604338
      1   S       2             2.8253944    0.234726953484
      1   S       3             0.6401217    0.813757326146

      2   S       4             0.1612778    1.000000000000

 H         

      3   S       5            18.7311370    0.033494604338
      3   S       6             2.8253944    0.234726953484
      3   S       7             0.6401217    0.813757326146

      4   S       8             0.1612778    1.000000000000

 O         

      5   S       9          5484.6716600    0.001831074430
      5   S      10           825.2349460    0.013950172200
      5   S      11           188.0469580    0.068445078098
      5   S      12            52.9645000    0.232714335992
      5   S      13            16.8975704    0.470192897984
      5   S      14             5.7996353    0.358520852987

      6   L      15            15.5396162   -0.110777549525    0.070874268231
      6   L      16             3.5999336   -0.148026262701    0.339752839147
      6   L      17             1.0137618    1.130767015354    0.727158577316

      7   L      18             0.2700058    1.000000000000    1.000000000000

 TOTAL NUMBER OF BASIS SET SHELLS             =    7
 NUMBER OF CARTESIAN GAUSSIAN BASIS FUNCTIONS =   13
 NUMBER OF ELECTRONS                          =   10
 CHARGE OF MOLECULE                           =    0
 SPIN MULTIPLICITY                            =    1
 NUMBER OF OCCUPIED ORBITALS (ALPHA)          =    5
 NUMBER OF OCCUPIED ORBITALS (BETA )          =    5
 TOTAL NUMBER OF ATOMS                        =    3
 THE NUCLEAR REPULSION ENERGY IS        9.2529085617

     $CONTRL OPTIONS
     ---------------
 SCFTYP=RHF          RUNTYP=HESSIAN      EXETYP=RUN     
 MPLEVL=       0     CITYP =NONE         CCTYP =NONE         VBTYP =NONE    
 DFTTYP=NONE         TDDFT =NONE    
 MULT  =       1     ICHARG=       0     NZVAR =       0     COORD =UNIQUE  
 PP    =NONE         RELWFN=NONE         LOCAL =NONE         NUMGRD=       F
 ISPHER=      -1     NOSYM =       0     MAXIT =      30     UNITS =ANGS    
 PLTORB=       F     MOLPLT=       F     AIMPAC=       F     FRIEND=        
 NPRINT=       7     IREST =       0     GEOM  =INPUT   
 NORMF =       0     NORMP =       0     ITOL  =      20     ICUT  =       9
 INTTYP=BEST         GRDTYP=BEST         QMTTOL= 1.0E-06

     $SYSTEM OPTIONS
     ---------------
  REPLICATED MEMORY=     1000000 WORDS (ON EVERY NODE).
 DISTRIBUTED MEMDDI=           0 MILLION WORDS IN AGGREGATE,
 MEMDDI DISTRIBUTED OVER   2 PROCESSORS IS           0 WORDS/PROCESSOR.
 TOTAL MEMORY REQUESTED ON EACH PROCESSOR=     1000000 WORDS.
 TIMLIM=      525600.00 MINUTES, OR     365.0 DAYS.
 PARALL= T  BALTYP=  DLB     KDIAG=    0  COREFL= F
 MXSEQ2=     300 MXSEQ3=     150  mem10=         0

          ----------------
          PROPERTIES INPUT
          ----------------

     MOMENTS            FIELD           POTENTIAL          DENSITY
 IEMOM =       1   IEFLD =       0   IEPOT =       0   IEDEN =       0
 WHERE =COMASS     WHERE =NUCLEI     WHERE =NUCLEI     WHERE =NUCLEI  
 OUTPUT=BOTH       OUTPUT=BOTH       OUTPUT=BOTH       OUTPUT=BOTH    
 IEMINT=       0   IEFINT=       0                     IEDINT=       0
                                                       MORB  =       0
          EXTRAPOLATION IN EFFECT
          SOSCF IN EFFECT
 ORBITAL PRINTING OPTION: NPREO=     1    13     2     1

     -------------------------------
     INTEGRAL TRANSFORMATION OPTIONS
     -------------------------------
     NWORD  =            0
     CUTOFF = 1.0E-09     MPTRAN =       0
     DIRTRF =       F     AOINTS =DUP     

          ----------------------
          INTEGRAL INPUT OPTIONS
          ----------------------
 NOPK  =       1 NORDER=       0 SCHWRZ=       F

     ------------------------------------------
     THE POINT GROUP IS C1 , NAXIS= 0, ORDER= 1
     ------------------------------------------

     DIMENSIONS OF THE SYMMETRY SUBSPACES ARE
 A   =   13

 ..... DONE SETTING UP THE RUN .....
 CPU     0: STEP CPU TIME=     0.01 TOTAL CPU TIME=        0.0 (    0.0 MIN)
 TOTAL WALL CLOCK TIME=        0.0 SECONDS, CPU UTILIZATION IS  50.00%

     ---------------------------------
     HESSIAN MATRIX CONTROL PARAMETERS
     ---------------------------------
     METHOD=ANALYTIC   NVIB  =       2   VIBSIZ= 0.01000
     RDHESS=       F   PURIFY=       F   PRTIFC=       F
     VIBANL=       T   DECOMP=       F   PROJCT=       F
     SCLFAC= 1.00000   PRTSCN=       F   NPRT  =       0
     PULCOR=       F   NPUN  =       0   REDOVB=       T
     THERMOCHEMISTRY WILL BE PRINTED FOR    1 TEMPERATURES:
      298.15000

     ------------------------------
     CPHF RESPONSE SOLUTION OPTIONS
     ------------------------------
     POLAR  =       F     NWORD  =       0
     CPHF   =AO      

          ********************
          1 ELECTRON INTEGRALS
          ********************
 ...... END OF ONE-ELECTRON INTEGRALS ......
 CPU     0: STEP CPU TIME=     0.00 TOTAL CPU TIME=        0.0 (    0.0 MIN)
 TOTAL WALL CLOCK TIME=        0.0 SECONDS, CPU UTILIZATION IS  50.00%

          -------------
          GUESS OPTIONS
          -------------
          GUESS =HUCKEL            NORB  =       0          NORDER=       0
          MIX   =       F          PRTMO =       F          PUNMO =       F
          TOLZ  = 1.0E-08          TOLE  = 1.0E-05
          SYMDEN=       F          PURIFY=       F

 INITIAL GUESS ORBITALS GENERATED BY HUCKEL   ROUTINE.
 HUCKEL GUESS REQUIRES      3535 WORDS.

 SYMMETRIES FOR INITIAL GUESS ORBITALS FOLLOW.   BOTH SET(S).
     5 ORBITALS ARE OCCUPIED (    1 CORE ORBITALS).
     2=A        3=A        4=A        5=A        6=A        7=A        8=A   
     9=A       10=A       11=A       12=A       13=A   
 ...... END OF INITIAL ORBITAL SELECTION ......
 CPU     0: STEP CPU TIME=     0.00 TOTAL CPU TIME=        0.0 (    0.0 MIN)
 TOTAL WALL CLOCK TIME=        0.0 SECONDS, CPU UTILIZATION IS  50.00%

                    ----------------------
                    AO INTEGRAL TECHNOLOGY
                    ----------------------
     S,P,L SHELL ROTATED AXIS INTEGRALS, REPROGRAMMED BY
        KAZUYA ISHIMURA (IMS) AND JOSE SIERRA (SYNSTAR).
     S,P,D,L SHELL ROTATED AXIS INTEGRALS PROGRAMMED BY
        KAZUYA ISHIMURA (INSTITUTE FOR MOLECULAR SCIENCE).
     S,P,D,F,G SHELL TO TOTAL QUARTET ANGULAR MOMENTUM SUM 5,
        ERIC PROGRAM BY GRAHAM FLETCHER (ELORET AND NASA ADVANCED
        SUPERCOMPUTING DIVISION, AMES RESEARCH CENTER).
     S,P,D,F,G,L SHELL GENERAL RYS QUADRATURE PROGRAMMED BY
        MICHEL DUPUIS (PACIFIC NORTHWEST NATIONAL LABORATORY).

          --------------------
          2 ELECTRON INTEGRALS
          --------------------

 THE -PK- OPTION IS OFF, THE INTEGRALS ARE NOT IN SUPERMATRIX FORM.
 STORING   15000 INTEGRALS/RECORD ON DISK, USING 12 BYTES/INTEGRAL.
 TWO ELECTRON INTEGRAL EVALUATION REQUIRES   89384 WORDS OF MEMORY.
 II,JST,KST,LST =  1  1  1  1 NREC =         1 INTLOC =    1
 II,JST,KST,LST =  2  1  1  1 NREC =         1 INTLOC =    1
 II,JST,KST,LST =  3  1  1  1 NREC =         1 INTLOC =    2
 II,JST,KST,LST =  4  1  1  1 NREC =         1 INTLOC =    7
 II,JST,KST,LST =  5  1  1  1 NREC =         1 INTLOC =   25
 II,JST,KST,LST =  6  1  1  1 NREC =         1 INTLOC =   63
 II,JST,KST,LST =  7  1  1  1 NREC =         1 INTLOC =  412
 TOTAL NUMBER OF NONZERO TWO-ELECTRON INTEGRALS =                2260
          2 INTEGRAL RECORDS WERE STORED ON DISK FILE  8.
  ...... END OF TWO-ELECTRON INTEGRALS .....
 CPU     0: STEP CPU TIME=     0.01 TOTAL CPU TIME=        0.0 (    0.0 MIN)
 TOTAL WALL CLOCK TIME=        0.0 SECONDS, CPU UTILIZATION IS  66.67%

          --------------------------
                 RHF SCF CALCULATION
          --------------------------

     NUCLEAR ENERGY =         9.2529085617
     MAXIT =   30     NPUNCH=    2
     EXTRAP=T  DAMP=F  SHIFT=F  RSTRCT=F  DIIS=F  DEM=F  SOSCF=T
     DENSITY MATRIX CONV=  1.00E-05
     SOSCF WILL OPTIMIZE      40 ORBITAL ROTATIONS, SOGTOL=   0.250
     MEMORY REQUIRED FOR RHF ITERS=     31525 WORDS.

 ITER EX DEM     TOTAL ENERGY        E CHANGE  DENSITY CHANGE     ORB. GRAD
   1  0  0      -75.7760573331   -75.7760573331   0.253665118   0.000000000
          ---------------START SECOND ORDER SCF---------------
   2  1  0      -75.9715502878    -0.1954929547   0.070118767   0.054409604
   3  2  0      -75.9840015289    -0.0124512411   0.026875558   0.015219948
   4  3  0      -75.9852815115    -0.0012799827   0.007197992   0.003744012
   5  4  0      -75.9853451974    -0.0000636858   0.001837797   0.001892406
   6  5  0      -75.9853582090    -0.0000130116   0.000622594   0.000418079
   7  6  0      -75.9853591540    -0.0000009450   0.000108986   0.000047187
   8  7  0      -75.9853591675    -0.0000000135   0.000043298   0.000015883
   9  8  0      -75.9853591692    -0.0000000018   0.000004692   0.000002042
  10  9  0      -75.9853591693    -0.0000000000   0.000001309   0.000000394

          -----------------
          DENSITY CONVERGED
          -----------------
     TIME TO FORM FOCK OPERATORS=       0.0 SECONDS (       0.0 SEC/ITER)
     TIME TO SOLVE SCF EQUATIONS=       0.0 SECONDS (       0.0 SEC/ITER)

 FINAL RHF ENERGY IS      -75.9853591693 AFTER  10 ITERATIONS

          ------------
          EIGENVECTORS
          ------------

                      1          2          3          4          5
                  -20.5535    -1.3525    -0.7264    -0.5482    -0.4983
                     A          A          A          A          A   
    1  H  1  S    0.000049   0.140889  -0.265487  -0.134549  -0.000000
    2  H  1  S    0.002010  -0.008517  -0.114741  -0.075177  -0.000000
    3  H  2  S    0.000049   0.140889   0.265487  -0.134549  -0.000000
    4  H  2  S    0.002010  -0.008517   0.114741  -0.075177  -0.000000
    5  O  3  S    0.995769  -0.213124   0.000000  -0.071373  -0.000000
    6  O  3  S    0.022016   0.470051   0.000000   0.170554  -0.000000
    7  O  3  X   -0.000000  -0.000000   0.000000  -0.000000   0.640185
    8  O  3  Y   -0.000000  -0.000000   0.504457  -0.000000  -0.000000
    9  O  3  Z   -0.002020  -0.105861   0.000000   0.560577  -0.000000
   10  O  3  S   -0.008051   0.479626   0.000000   0.289693  -0.000000
   11  O  3  X   -0.000000  -0.000000   0.000000  -0.000000   0.511549
   12  O  3  Y   -0.000000  -0.000000   0.262467  -0.000000  -0.000000
   13  O  3  Z    0.001791  -0.056400   0.000000   0.418748  -0.000000

                      6          7          8          9         10
                    0.2070     0.3029     1.1055     1.1612     1.1672
                     A          A          A          A          A   
    1  H  1  S   -0.063532   0.031469  -1.000088   1.005060   0.000000
    2  H  1  S   -1.005106   1.390063   0.411603  -0.493496   0.000000
    3  H  2  S   -0.063532  -0.031469   1.000088   1.005060   0.000000
    4  H  2  S   -1.005106  -1.390063  -0.411603  -0.493496   0.000000
    5  O  3  S   -0.087705   0.000000  -0.000000   0.072296   0.000000
    6  O  3  S    0.108415   0.000000  -0.000000  -0.318139   0.000000
    7  O  3  X   -0.000000   0.000000  -0.000000  -0.000000  -0.962398
    8  O  3  Y   -0.000000   0.330297  -0.126689  -0.000000   0.000000
    9  O  3  Z   -0.216369   0.000000  -0.000000   0.267082   0.000000
   10  O  3  S    1.211171   0.000000  -0.000000   0.011322   0.000000
   11  O  3  X   -0.000000   0.000000  -0.000000  -0.000000   1.036516
   12  O  3  Y   -0.000000   0.844220  -0.841759  -0.000000   0.000000
   13  O  3  Z   -0.444940   0.000000  -0.000000   0.326831   0.000000

                     11         12         13
                    1.2046     1.3889     1.6761
                     A          A          A   
    1  H  1  S    0.111413  -0.074719  -0.361997
    2  H  1  S    0.176398   0.918968  -0.649556
    3  H  2  S    0.111413   0.074719  -0.361997
    4  H  2  S    0.176398  -0.918968  -0.649556
    5  O  3  S    0.035792   0.000000   0.061650
    6  O  3  S   -0.226681   0.000000  -1.703937
    7  O  3  X    0.000000   0.000000  -0.000000
    8  O  3  Y    0.000000  -1.039516  -0.000000
    9  O  3  Z   -0.945307   0.000000   0.179226
   10  O  3  S   -0.086199   0.000000   2.754238
   11  O  3  X    0.000000   0.000000  -0.000000
   12  O  3  Y    0.000000   1.589901  -0.000000
   13  O  3  Z    1.158260   0.000000  -0.729064
 ...... END OF RHF CALCULATION ......
 CPU     0: STEP CPU TIME=     0.00 TOTAL CPU TIME=        0.0 (    0.0 MIN)
 TOTAL WALL CLOCK TIME=        0.0 SECONDS, CPU UTILIZATION IS  50.00%

     ----------------------------------------------------------------
     PROPERTY VALUES FOR THE RHF   SELF-CONSISTENT FIELD WAVEFUNCTION
     ----------------------------------------------------------------

          -----------------
          ENERGY COMPONENTS
          -----------------

         WAVEFUNCTION NORMALIZATION =       1.0000000000

                ONE ELECTRON ENERGY =    -123.1186787393
                TWO ELECTRON ENERGY =      37.8804110083
           NUCLEAR REPULSION ENERGY =       9.2529085617
                                      ------------------
                       TOTAL ENERGY =     -75.9853591693

 ELECTRON-ELECTRON POTENTIAL ENERGY =      37.8804110083
  NUCLEUS-ELECTRON POTENTIAL ENERGY =    -199.1333362580
   NUCLEUS-NUCLEUS POTENTIAL ENERGY =       9.2529085617
                                      ------------------
             TOTAL POTENTIAL ENERGY =    -152.0000166880
               TOTAL KINETIC ENERGY =      76.0146575187
                 VIRIAL RATIO (V/T) =       1.9996145697

  ...... PI ENERGY ANALYSIS ......

 ENERGY ANALYSIS:
            FOCK ENERGY=    -47.3578573174
          BARE H ENERGY=   -123.1186787393
     ELECTRONIC ENERGY =    -85.2382680283
         KINETIC ENERGY=     76.0146575187
          N-N REPULSION=      9.2529085617
           TOTAL ENERGY=    -75.9853594666
        SIGMA PART(1+2)=    -77.6424466336
               (K,V1,2)=     71.4593734667   -180.3830074553     31.2811873550
           PI PART(1+2)=     -7.5958213948
               (K,V1,2)=      4.5552840521    -18.7503288028      6.5992233559
  SIGMA SKELETON, ERROR=    -68.3895380718      0.0000000000
             MIXED PART= 0.00000E+00 0.00000E+00 0.00000E+00 0.00000E+00
 ...... END OF PI ENERGY ANALYSIS ......

          ---------------------------------------
          MULLIKEN AND LOWDIN POPULATION ANALYSES
          ---------------------------------------

     ATOMIC MULLIKEN POPULATION IN EACH MOLECULAR ORBITAL

                      1          2          3          4          5

                  2.000000   2.000000   2.000000   2.000000   2.000000

    1             0.000305   0.128674   0.373599   0.091802   0.000000
    2             0.000305   0.128674   0.373599   0.091802   0.000000
    3             1.999390   1.742651   1.252802   1.816397   2.000000

               ----- POPULATIONS IN EACH AO -----
                             MULLIKEN      LOWDIN
              1  H  1  S      0.50657     0.47739
              2  H  1  S      0.08781     0.22666
              3  H  2  S      0.50657     0.47739
              4  H  2  S      0.08781     0.22666
              5  O  3  S      1.99769     1.99406
              6  O  3  S      0.89663     0.86827
              7  O  3  X      1.14815     1.12818
              8  O  3  Y      0.79958     0.73393
              9  O  3  Z      0.96551     0.92687
             10  O  3  S      0.98201     0.75363
             11  O  3  X      0.85185     0.87182
             12  O  3  Y      0.45323     0.55110
             13  O  3  Z      0.71661     0.76404

          ----- MULLIKEN ATOMIC OVERLAP POPULATIONS -----
          (OFF-DIAGONAL ELEMENTS NEED TO BE MULTIPLIED BY 2)

             1           2           3

    1    0.3583482
    2   -0.0279157   0.3583482
    3    0.2639473   0.2639473   8.2833455

          TOTAL MULLIKEN AND LOWDIN ATOMIC POPULATIONS
       ATOM         MULL.POP.    CHARGE          LOW.POP.     CHARGE
    1 H             0.594380    0.405620         0.704051    0.295949
    2 H             0.594380    0.405620         0.704051    0.295949
    3 O             8.811240   -0.811240         8.591897   -0.591897

          -------------------------------
          BOND ORDER AND VALENCE ANALYSIS     BOND ORDER THRESHOLD=0.050
          -------------------------------

                   BOND                       BOND                       BOND
  ATOM PAIR DIST  ORDER      ATOM PAIR DIST  ORDER      ATOM PAIR DIST  ORDER
    1   3  0.950  0.792        2   3  0.950  0.792

                       TOTAL       BONDED        FREE
      ATOM            VALENCE     VALENCE     VALENCE
    1 H                 0.799       0.799      -0.000
    2 H                 0.799       0.799       0.000
    3 O                 1.585       1.585       0.000

          ---------------------
          ELECTROSTATIC MOMENTS
          ---------------------

 POINT   1           X           Y           Z (BOHR)    CHARGE
                 0.000000    0.000000    0.874915        0.00 (A.U.)
         DX          DY          DZ         /D/  (DEBYE)
     0.000000    0.000000   -2.500591    2.500591
 ...... END OF PROPERTY EVALUATION ......
 CPU     0: STEP CPU TIME=     0.02 TOTAL CPU TIME=        0.0 (    0.0 MIN)
 TOTAL WALL CLOCK TIME=        0.0 SECONDS, CPU UTILIZATION IS 100.00%

     ---------------------------------------------
     1ST AND 2ND INTEGRAL DERIVATIVE CONTRIBUTIONS
     ---------------------------------------------
 ...... END OF 1-ELECTRON GRAD+HESS+FOCKDER ......
 CPU     0: STEP CPU TIME=     0.00 TOTAL CPU TIME=        0.0 (    0.0 MIN)
 TOTAL WALL CLOCK TIME=        0.1 SECONDS, CPU UTILIZATION IS  80.00%

     ----------------------------------------------
     TWO ELECTRON INTEGRAL DERIVATIVE CONTRIBUTIONS
     ----------------------------------------------

       9016 WORDS REQUIRED,   1000000 WORDS AVAILABLE
 THE COARSE/FINE SCHWARZ SCREENINGS SKIPPED          0/         0 BLOCKS.
 THE NUMBER OF DERIVATIVE INTEGRAL BLOCKS COMPUTED WAS       373
 CPU     0: STEP CPU TIME=     0.02 TOTAL CPU TIME=        0.1 (    0.0 MIN)
 TOTAL WALL CLOCK TIME=        0.1 SECONDS, CPU UTILIZATION IS  85.71%
 ...... END OF 2-ELECTRON GRAD+HESS+FOCKDER ......
 CPU     0: STEP CPU TIME=     0.00 TOTAL CPU TIME=        0.1 (    0.0 MIN)
 TOTAL WALL CLOCK TIME=        0.1 SECONDS, CPU UTILIZATION IS  85.71%

     -------------------------------------------
     COUPLED-PERTURBED CLOSED SHELL HARTREE-FOCK
     -------------------------------------------
 THE CPHF HAS      40 INDEPENDENT ORBITAL ROTATIONS.
 SOLVING FOR    9 NUCLEAR RESPONSES AND 0 ELECTRIC FIELD RESPONSES
           -FA- WILL USE      1075 WORDS,
           -TA- WILL USE      2741 WORDS,
          -FCK- WILL USE     32999 WORDS,
 -WXY- AND -YA- WILL USE     34158 WORDS,
               THERE ARE   1000000 WORDS OF REPLICATED MEMORY AVAILABLE.
        TIME FOR -FA-   =        0.000
        TIME FOR -TA-   =        0.000
        TIME FOR -FCK-  =        0.000
 PRECONDITIONED CONJUGATE GRADIENT SOLVER     CONV. TOLERANCE=5.00E-05
 ITER    RESPONSE ERROR        IMPROVED
   1       4.04473E-01             9
   2       1.40312E-01             9
   3       2.36313E-02             9
   4       3.41855E-03             9
   5       4.70222E-04             9
   6       7.67753E-05             8
   7       1.38970E-05             3
 THE CPHF HAS CONVERGED AFTER  7 ITERATIONS.
 IT REQUIRED    56 FOCK-LIKE BUILDS TO FIND THE   9 SYMMETRY UNIQUE RESPONSES.
        TIME FOR -YA-   =        0.000
 ...... DONE WITH CPHF CONTRIBUTIONS ......
 CPU     0: STEP CPU TIME=     0.00 TOTAL CPU TIME=        0.1 (    0.0 MIN)
 TOTAL WALL CLOCK TIME=        0.1 SECONDS, CPU UTILIZATION IS  85.71%

          ---------------
          ENERGY GRADIENT
          ---------------

 UNITS ARE HARTREE/BOHR    E'X               E'Y               E'Z 
    1 H                0.000000000      -0.000000046      -0.000000035
    2 H                0.000000000       0.000000046      -0.000000035
    3 O                0.000000000       0.000000000       0.000000069

          -------------------------------
          CARTESIAN FORCE CONSTANT MATRIX
          -------------------------------

                                   1                          2
                               H                          H         
                          X        Y        Z        X        Y        Z
  1   H            X 0.000000 0.000000 0.000000 0.000000 0.000000 0.000000
                   Y 0.000000 0.443572 0.243008 0.000000-0.031055-0.037624
                   Z 0.000000 0.243008 0.205215 0.000000 0.037624 0.014302
  2   H            X 0.000000 0.000000 0.000000 0.000000 0.000000 0.000000
                   Y 0.000000-0.031055 0.037624 0.000000 0.443572-0.243008
                   Z 0.000000-0.037624 0.014302 0.000000-0.243008 0.205215
  3   O            X-0.000000 0.000000 0.000000-0.000000 0.000000 0.000000
                   Y 0.000000-0.412517-0.280633 0.000000-0.412517 0.280633
                   Z 0.000000-0.205384-0.219517 0.000000 0.205384-0.219517

                                   3
                               O         
                          X        Y        Z
  3   O            X 0.000000 0.000000 0.000000
                   Y 0.000000 0.825033-0.000000
                   Z 0.000000-0.000000 0.439032

          ------------------------          ----------------
          DIPOLE DERIVATIVE TENSOR          (DEBYE/ANGSTROM)
          ------------------------          ----------------

        ATOM                 MU-X           MU-Y           MU-Z
     H          D/DX     2.340740714    0.000000000    0.000000000
                D/DY     0.000000000    1.320181161   -0.467324552
                D/DZ     0.000000000   -0.694223283    1.067971389
     H          D/DX     2.340740714    0.000000000    0.000000000
                D/DY     0.000000000    1.320181161    0.467324552
                D/DZ     0.000000000    0.694223283    1.067971389
     O          D/DX    -4.681474008    0.000000000    0.000000000
                D/DY     0.000000000   -2.640555085    0.000000000
                D/DZ     0.000000000    0.000000000   -2.135921750

          --------------------------------------------------------
          NORMAL COORDINATE ANALYSIS IN THE HARMONIC APPROXIMATION
          --------------------------------------------------------

          ATOMIC WEIGHTS (AMU)

    1     H                 1.00782
    2     H                 1.00782
    3     O                15.99491

 MODES 1 TO 6 ARE TAKEN AS ROTATIONS AND TRANSLATIONS.

 ANALYZING SYMMETRY OF NORMAL MODES...

     FREQUENCIES IN CM**-1, IR INTENSITIES IN DEBYE**2/AMU-ANGSTROM**2,
     REDUCED MASSES IN AMU.

                          1           2           3           4           5
       FREQUENCY:         2.28        2.22        0.37        0.01        2.74  
        SYMMETRY:         A           A           A           A           A   
    REDUCED MASS:      6.18230     1.00783     9.88316     6.00354     1.04869
    IR INTENSITY:      0.44904     0.00000     0.22423     0.00000    12.01902

  1   H            X  0.00000000 -0.70435636  0.14363538 -0.00000000  0.68955548
                   Y  0.09318431 -0.00000000 -0.00000000  0.00000001  0.00000000
                   Z  0.21040262 -0.00000000  0.00000000  0.23563266  0.00000000
  2   H            X  0.00000000  0.70435636  0.14363538 -0.00000000  0.68955547
                   Y  0.09318431 -0.00000000 -0.00000000 -0.00000001  0.00000000
                   Z -0.21040262  0.00000000  0.00000000  0.23563266  0.00000000
  3   O            X  0.00000000  0.00000000  0.24478560 -0.00000000 -0.05098919
                   Y  0.23631949 -0.00000000 -0.00000000  0.00000000  0.00000000
                   Z -0.00000000  0.00000000  0.00000000  0.23563321  0.00000000

 TRANS. SAYVETZ    X  0.00000000  0.00000001  4.20484236 -0.00000000  0.57433502
                   Y  3.96773588 -0.00000000 -0.00000000  0.00000000  0.00000000
                   Z -0.00000000  0.00000000  0.00000000  4.24388501  0.00000000
               TOTAL  3.96773588  0.00000001  4.20484236  4.24388501  0.57433502

   ROT. SAYVETZ    X -0.88788297  0.00000000  0.00000000  0.00000000  0.00000000
                   Y  0.00000000 -0.00000000  0.18276599 -0.00000000 -1.33807298
                   Z -0.00000000 -2.10653270  0.00000000 -0.00000000  0.00000000
               TOTAL  0.88788297  2.10653270  0.18276599  0.00000000  1.33807298

                          6           7           8           9
       FREQUENCY:         6.00     1737.01     3988.50     4145.43  
        SYMMETRY:         A           A           A           A   
    REDUCED MASS:      1.03440     1.09153     1.03704     1.08874
    IR INTENSITY:      3.11701     2.91205     0.06999     1.28497

  1   H            X  0.00000000  0.00000000 -0.00000000  0.00000000
                   Y -0.41854309 -0.36510785  0.60234055  0.55879893
                   Z  0.55437985  0.56763545  0.34407140  0.38014681
  2   H            X  0.00000000  0.00000000 -0.00000000  0.00000000
                   Y -0.41854309  0.36510785 -0.60234055  0.55879893
                   Z -0.55437985  0.56763545  0.34407140 -0.38014681
  3   O            X -0.00000000 -0.00000000 -0.00000000 -0.00000000
                   Y -0.04140251  0.00000000 -0.00000000 -0.07041890
                   Z  0.00000000 -0.07153223 -0.04335916  0.00000000

 TRANS. SAYVETZ    X -0.00000000 -0.00000000 -0.00000000 -0.00000000
                   Y -1.50586587  0.00000000 -0.00000000 -0.00000088
                   Z  0.00000000  0.00000274  0.00000158  0.00000000
               TOTAL  1.50586587  0.00000274  0.00000158  0.00000088

   ROT. SAYVETZ    X -2.33944151 -0.00000000  0.00000000  0.00000641
                   Y -0.00000000 -0.00000000  0.00000000 -0.00000000
                   Z  0.00000000 -0.00000000 -0.00000000 -0.00000000
               TOTAL  2.33944151  0.00000000  0.00000000  0.00000641

 REFERENCE ON SAYVETZ CONDITIONS - A. SAYVETZ, J.CHEM.PHYS., 7, 383-389(1939).

 NOTE - THE MODES J,K ARE ORTHONORMALIZED ACCORDING TO
 SUM ON I   M(I) * (X(I,J)*X(I,K) + Y(I,J)*Y(I,K) + Z(I,J)*Z(I,K)) = DELTA(J,K)

  MODE FREQ(CM**-1)  SYMMETRY  RED. MASS  IR INTENS.
     1       2.277    A        6.182302    0.449043
     2       2.223    A        1.007825    0.000000
     3       0.374    A        9.883158    0.224232
     4       0.006    A        6.003536    0.000000
     5       2.735    A        1.048687   12.019019
     6       6.000    A        1.034399    3.117013
     7    1737.011    A        1.091531    2.912046
     8    3988.504    A        1.037045    0.069988
     9    4145.429    A        1.088738    1.284965

     -------------------------------
     THERMOCHEMISTRY AT T=  298.15 K
     -------------------------------

 USING IDEAL GAS, RIGID ROTOR, HARMONIC NORMAL MODE APPROXIMATIONS.
 P=  1.01325E+05 PASCAL.
 ALL FREQUENCIES ARE SCALED BY   1.00000
 THE MOMENTS OF INERTIA ARE (IN AMU*BOHR**2)
      1.82384     4.43748     6.26132
 THE ROTATIONAL SYMMETRY NUMBER IS  1.0
 THE ROTATIONAL CONSTANTS ARE (IN GHZ)
    988.62047   406.33157   287.97242
 THE HARMONIC ZERO POINT ENERGY IS (SCALED BY   1.000)
        0.022488 HARTREE/MOLECULE     4935.472089 CM**-1/MOLECULE 
       14.111237 KCAL/MOL               59.041416 KJ/MOL

               Q               LN Q
 ELEC.     1.00000E+00       0.000000
 TRANS.    3.00431E+06      14.915558
 ROT.      8.05817E+01       4.389271
 VIB.      1.00023E+00       0.000229
 TOT.      2.42148E+08      19.305058

              E         H         G         CV        CP        S
           KJ/MOL    KJ/MOL    KJ/MOL   J/MOL-K   J/MOL-K   J/MOL-K
 ELEC.      0.000     0.000     0.000     0.000     0.000     0.000
 TRANS.     3.718     6.197   -36.975    12.472    20.786   144.800
 ROT.       3.718     3.718   -10.881    12.472    12.472    48.966
 VIB.      59.046    59.046    59.041     0.134     0.134     0.018
 TOTAL     66.483    68.962    11.185    25.077    33.391   193.784
 VIB. THERMAL CORRECTION E(T)-E(0) = H(T)-H(0) =     4.757 J/MOL

              E         H         G         CV        CP        S
         KCAL/MOL  KCAL/MOL  KCAL/MOL CAL/MOL-K CAL/MOL-K CAL/MOL-K
 ELEC.      0.000     0.000     0.000     0.000     0.000     0.000
 TRANS.     0.889     1.481    -8.837     2.981     4.968    34.608
 ROT.       0.889     0.889    -2.601     2.981     2.981    11.703
 VIB.      14.112    14.112    14.111     0.032     0.032     0.004
 TOTAL     15.890    16.482     2.673     5.994     7.981    46.315
 VIB. THERMAL CORRECTION E(T)-E(0) = H(T)-H(0) =     1.137 CAL/MOL
 ......END OF NORMAL COORDINATE ANALYSIS......
 CPU     0: STEP CPU TIME=     0.00 TOTAL CPU TIME=        0.1 (    0.0 MIN)
 TOTAL WALL CLOCK TIME=        0.1 SECONDS, CPU UTILIZATION IS  85.71%
               580000  WORDS OF DYNAMIC MEMORY USED
 EXECUTION OF GAMESS TERMINATED NORMALLY Sun Mar  6 22:58:35 2016
 DDI: 263640 bytes (0.3 MB / 0 MWords) used by master data server.

 ----------------------------------------
 CPU timing information for all processes
 ========================================
 0: 0.44 + 0.23 = 0.68
 1: 0.29 + 0.24 = 0.53
 ----------------------------------------
 ddikick.x: exited gracefully.
----- accounting info -----
Files used on the master node Clevo were:
-rw-r--r-- 1 sagar sagar    7745 Mar  6 22:58 /tmp/H2O_RHF_631G_hessian.dat
-rw-r--r-- 1 sagar sagar     266 Mar  6 22:58 /tmp/H2O_RHF_631G_hessian.F05
-rw-r--r-- 1 sagar sagar  180016 Mar  6 22:58 /tmp/H2O_RHF_631G_hessian.F08
-rw-r--r-- 1 sagar sagar  180016 Mar  6 22:58 /tmp/H2O_RHF_631G_hessian.F08.001
-rw-r--r-- 1 sagar sagar 1865040 Mar  6 22:58 /tmp/H2O_RHF_631G_hessian.F10
-rw-r--r-- 1 sagar sagar    6624 Mar  6 22:58 /tmp/H2O_RHF_631G_hessian.F18
Sun Mar  6 22:58:38 WET 2016
0.122u 0.044s 0:03.24 4.9%	0+0k 0+24io 0pf+0w
