----- GAMESS execution script 'rungms' -----
This job is running on host Clevo
under operating system Linux at Sun Mar 6 23:02:46 WET 2016
Available scratch disk space (Kbyte units) at beginning of the job is
Filesystem                                             1K-blocks     Used Available Use% Mounted on
/dev/disk/by-uuid/c2905ecd-da6a-4deb-abcc-9980c215dfc9  34319120 18791916  13760804  58% /
GAMESS temporary binary files will be written to /tmp
GAMESS supplementary output files will be written to .
Copying input file H2O_RHF_ccpVTZ_hessian.inp to your run's scratch directory...

 Distributed Data Interface kickoff program.
 Initiating 2 compute processes on 1 nodes to run the following command:
 /home/sagar/gamess/gamess.01.x H2O_RHF_ccpVTZ_hessian 

          ******************************************************
          *         GAMESS VERSION =  5 DEC 2014 (R1)          *
          *             FROM IOWA STATE UNIVERSITY             *
          * M.W.SCHMIDT, K.K.BALDRIDGE, J.A.BOATZ, S.T.ELBERT, *
          *   M.S.GORDON, J.H.JENSEN, S.KOSEKI, N.MATSUNAGA,   *
          *          K.A.NGUYEN, S.J.SU, T.L.WINDUS,           *
          *       TOGETHER WITH M.DUPUIS, J.A.MONTGOMERY       *
          *         J.COMPUT.CHEM.  14, 1347-1363(1993)        *
          **************** 64 BIT LINUX VERSION ****************

  SINCE 1993, STUDENTS AND POSTDOCS WORKING AT IOWA STATE UNIVERSITY
  AND ALSO IN THEIR VARIOUS JOBS AFTER LEAVING ISU HAVE MADE IMPORTANT
  CONTRIBUTIONS TO THE CODE:
     IVANA ADAMOVIC, CHRISTINE AIKENS, YURI ALEXEEV, POOJA ARORA,
     ANDREY ASADCHEV, ROB BELL, PRADIPTA BANDYOPADHYAY, JONATHAN BENTZ,
     BRETT BODE, KURT BRORSEN, CALEB CARLIN, GALINA CHABAN, WEI CHEN,
     CHEOL HO CHOI, PAUL DAY, ALBERT DEFUSCO, NUWAN DESILVA, TIM DUDLEY,
     DMITRI FEDOROV, GRAHAM FLETCHER, MARK FREITAG, KURT GLAESEMANN,
     DAN KEMP, GRANT MERRILL, NORIYUKI MINEZAWA, JONATHAN MULLIN,
     TAKESHI NAGATA, SEAN NEDD, HEATHER NETZLOFF, BOSILJKA NJEGIC, RYAN OLSON,
     MIKE PAK, SPENCER PRUITT, LUKE ROSKOP, JIM SHOEMAKER, LYUDMILA SLIPCHENKO,
     TONY SMITH, SAROM SOK, JIE SONG, TETSUYA TAKETSUGU, SIMON WEBB,
     PENG XU, SOOHAENG YOO, FEDERICO ZAHARIEV

  ADDITIONAL CODE HAS BEEN PROVIDED BY COLLABORATORS IN OTHER GROUPS:
     IOWA STATE UNIVERSITY:
          JOE IVANIC, AARON WEST, LAIMUTIS BYTAUTAS, KLAUS RUEDENBERG
     UNIVERSITY OF TOKYO: KIMIHIKO HIRAO, TAKAHITO NAKAJIMA,
          TAKAO TSUNEDA, MUNEAKI KAMIYA, SUSUMU YANAGISAWA,
          KIYOSHI YAGI, MAHITO CHIBA, SEIKEN TOKURA, NAOAKI KAWAKAMI
     UNIVERSITY OF AARHUS: FRANK JENSEN
     UNIVERSITY OF IOWA: VISVALDAS KAIRYS, HUI LI
     NATIONAL INST. OF STANDARDS AND TECHNOLOGY: WALT STEVENS, DAVID GARMER
     UNIVERSITY OF PISA: BENEDETTA MENNUCCI, JACOPO TOMASI
     UNIVERSITY OF MEMPHIS: HENRY KURTZ, PRAKASHAN KORAMBATH
     UNIVERSITY OF ALBERTA: TOBY ZENG, MARIUSZ KLOBUKOWSKI
     UNIVERSITY OF NEW ENGLAND: MARK SPACKMAN
     MIE UNIVERSITY: HIROAKI UMEDA
     NAT. INST. OF ADVANCED INDUSTRIAL SCIENCE AND TECHNOLOGY: KAZUO KITAURA
     MICHIGAN STATE UNIVERSITY:
          KAROL KOWALSKI, MARTA WLOCH, JEFFREY GOUR, JESSE LUTZ,
          WEI LI, PIOTR PIECUCH
     UNIVERSITY OF SILESIA: MONIKA MUSIAL, STANISLAW KUCHARSKI
     FACULTES UNIVERSITAIRES NOTRE-DAME DE LA PAIX:
          OLIVIER QUINET, BENOIT CHAMPAGNE
     UNIVERSITY OF CALIFORNIA - SANTA BARBARA: BERNARD KIRTMAN
     INSTITUTE FOR MOLECULAR SCIENCE:
          KAZUYA ISHIMURA, MICHIO KATOUDA, AND SHIGERU NAGASE
     UNIVERSITY OF NOTRE DAME: ANNA POMOGAEVA, DAN CHIPMAN
     KYUSHU UNIVERSITY:
          HARUYUKI NAKANO,
          FENG LONG GU, JACEK KORCHOWIEC, MARCIN MAKOWSKI, AND YURIKO AOKI,
          HIROTOSHI MORI AND EISAKU MIYOSHI
     PENNSYLVANIA STATE UNIVERSITY:
          TZVETELIN IORDANOV, CHET SWALINA, JONATHAN SKONE,
          SHARON HAMMES-SCHIFFER
     WASEDA UNIVERSITY:
          MASATO KOBAYASHI, TOMOKO AKAMA, TSUGUKI TOUMA,
          TAKESHI YOSHIKAWA, YASUHIRO IKABATA, HIROMI NAKAI
     NANJING UNIVERSITY: SHUHUA LI
     UNIVERSITY OF NEBRASKA:
          PEIFENG SU, DEJUN SI, NANDUN THELLAMUREGE, YALI WANG, HUI LI
     UNIVERSITY OF ZURICH: ROBERTO PEVERATI, KIM BALDRIDGE
     N. COPERNICUS UNIVERSITY AND JACKSON STATE UNIVERSITY:
          MARIA BARYSZ
     UNIVERSITY OF COPENHAGEN: CASPER STEINMANN
     TOKYO INSTITUTE OF TECHNOLOGY: HIROYA NAKATA
     NAGOYA UNIVERSITY: YOSHIO NISHIMOTO, STEPHAN IRLE


 PARALLEL VERSION RUNNING ON        2 PROCESSORS IN        1 NODES.

 EXECUTION OF GAMESS BEGUN Sun Mar  6 23:02:46 2016

            ECHO OF THE FIRST FEW INPUT CARDS -
 INPUT CARD> $CONTRL SCFTYP=RHF RUNTYP=HESSIAN ISPHER=1 $END                                
 INPUT CARD> $STATPT OPTTOL=1E-12 NSTEP=1000 $END                                           
 INPUT CARD> $BASIS GBASIS=CCT $END                                                         
 INPUT CARD> $DATA                                                                          
 INPUT CARD>H2O                                                                             
 INPUT CARD>C1                                                                              
 INPUT CARD> H 1 0.0000000000 -0.7512063522 -0.0220193064                                   
 INPUT CARD> H 1 0.0000000000 0.7512063522 -0.0220193064                                    
 INPUT CARD> O 8 0.0000000000 0.0000000000 0.5440386129                                     
 INPUT CARD> $END                                                                           
    1000000 WORDS OF MEMORY AVAILABLE

     BASIS OPTIONS
     -------------
     GBASIS=CCT          IGAUSS=       0      POLAR=NONE    
     NDFUNC=       0     NFFUNC=       0     DIFFSP=       F
     NPFUNC=       0      DIFFS=       F     BASNAM=        


     RUN TITLE
     ---------
 H2O                                                                             

 THE POINT GROUP OF THE MOLECULE IS C1      
 THE ORDER OF THE PRINCIPAL AXIS IS     0

 ATOM      ATOMIC                      COORDINATES (BOHR)
           CHARGE         X                   Y                   Z
 H           1.0     0.0000000000       -1.4195741659       -0.0416104555
 H           1.0     0.0000000000        1.4195741659       -0.0416104555
 O           8.0     0.0000000000        0.0000000000        1.0280839051

          INTERNUCLEAR DISTANCES (ANGS.)
          ------------------------------

                1 H          2 H          3 O     

   1 H       0.0000000    1.5024127 *  0.9406022 *
   2 H       1.5024127 *  0.0000000    0.9406022 *
   3 O       0.9406022 *  0.9406022 *  0.0000000  

  * ... LESS THAN  3.000


     ATOMIC BASIS SET
     ----------------
 THE CONTRACTED PRIMITIVE FUNCTIONS HAVE BEEN UNNORMALIZED
 THE CONTRACTED BASIS FUNCTIONS ARE NOW NORMALIZED TO UNITY

  SHELL TYPE  PRIMITIVE        EXPONENT          CONTRACTION COEFFICIENT(S)

 H         

      1   S       1            33.8700000    0.025494863235
      1   S       2             5.0950000    0.190362765893
      1   S       3             1.1590000    0.852162022245

      2   S       4             0.3258000    1.000000000000

      3   S       5             0.1027000    1.000000000000

      4   P       6             1.4070000    1.000000000000

      5   P       7             0.3880000    1.000000000000

      6   D       8             1.0570000    1.000000000000

 H         

      7   S       9            33.8700000    0.025494863235
      7   S      10             5.0950000    0.190362765893
      7   S      11             1.1590000    0.852162022245

      8   S      12             0.3258000    1.000000000000

      9   S      13             0.1027000    1.000000000000

     10   P      14             1.4070000    1.000000000000

     11   P      15             0.3880000    1.000000000000

     12   D      16             1.0570000    1.000000000000

 O         

     13   S      17         15330.0000000    0.000520198307
     13   S      18          2299.0000000    0.004023344781
     13   S      19           522.4000000    0.020729083329
     13   S      20           147.3000000    0.081082327080
     13   S      21            47.5500000    0.236226352118
     13   S      22            16.7600000    0.443518209420
     13   S      23             6.2070000    0.358670588689
     13   S      24             0.6882000   -0.008349797237

     14   S      25         15330.0000000   -0.000197236012
     14   S      26          2299.0000000   -0.001535010700
     14   S      27           522.4000000   -0.007951183914
     14   S      28           147.3000000   -0.032113452892
     14   S      29            47.5500000   -0.100269643049
     14   S      30            16.7600000   -0.234047111838
     14   S      31             6.2070000   -0.301410927756
     14   S      32             0.6882000    1.034919649508

     15   S      33             1.7520000    1.000000000000

     16   S      34             0.2384000    1.000000000000

     17   P      35            34.4600000    0.041163489568
     17   P      36             7.7490000    0.257762835858
     17   P      37             2.2800000    0.802419274427

     18   P      38             0.7156000    1.000000000000

     19   P      39             0.2140000    1.000000000000

     20   D      40             2.3140000    1.000000000000

     21   D      41             0.6450000    1.000000000000

     22   F      42             1.4280000    1.000000000000

 TOTAL NUMBER OF BASIS SET SHELLS             =   22
 NUMBER OF CARTESIAN GAUSSIAN BASIS FUNCTIONS =   65
 NOTE: THIS RUN WILL RESTRICT THE MO VARIATION SPACE TO SPHERICAL HARMONICS.
 THE NUMBER OF ORBITALS KEPT IN THE VARIATIONAL SPACE WILL BE PRINTED LATER.
 NUMBER OF ELECTRONS                          =   10
 CHARGE OF MOLECULE                           =    0
 SPIN MULTIPLICITY                            =    1
 NUMBER OF OCCUPIED ORBITALS (ALPHA)          =    5
 NUMBER OF OCCUPIED ORBITALS (BETA )          =    5
 TOTAL NUMBER OF ATOMS                        =    3
 THE NUCLEAR REPULSION ENERGY IS        9.3537236493

     $CONTRL OPTIONS
     ---------------
 SCFTYP=RHF          RUNTYP=HESSIAN      EXETYP=RUN     
 MPLEVL=       0     CITYP =NONE         CCTYP =NONE         VBTYP =NONE    
 DFTTYP=NONE         TDDFT =NONE    
 MULT  =       1     ICHARG=       0     NZVAR =       0     COORD =UNIQUE  
 PP    =NONE         RELWFN=NONE         LOCAL =NONE         NUMGRD=       F
 ISPHER=       1     NOSYM =       0     MAXIT =      30     UNITS =ANGS    
 PLTORB=       F     MOLPLT=       F     AIMPAC=       F     FRIEND=        
 NPRINT=       7     IREST =       0     GEOM  =INPUT   
 NORMF =       0     NORMP =       0     ITOL  =      20     ICUT  =       9
 INTTYP=BEST         GRDTYP=BEST         QMTTOL= 1.0E-06

     $SYSTEM OPTIONS
     ---------------
  REPLICATED MEMORY=     1000000 WORDS (ON EVERY NODE).
 DISTRIBUTED MEMDDI=           0 MILLION WORDS IN AGGREGATE,
 MEMDDI DISTRIBUTED OVER   2 PROCESSORS IS           0 WORDS/PROCESSOR.
 TOTAL MEMORY REQUESTED ON EACH PROCESSOR=     1000000 WORDS.
 TIMLIM=      525600.00 MINUTES, OR     365.0 DAYS.
 PARALL= T  BALTYP=  DLB     KDIAG=    0  COREFL= F
 MXSEQ2=     300 MXSEQ3=     150  mem10=         0

          ----------------
          PROPERTIES INPUT
          ----------------

     MOMENTS            FIELD           POTENTIAL          DENSITY
 IEMOM =       1   IEFLD =       0   IEPOT =       0   IEDEN =       0
 WHERE =COMASS     WHERE =NUCLEI     WHERE =NUCLEI     WHERE =NUCLEI  
 OUTPUT=BOTH       OUTPUT=BOTH       OUTPUT=BOTH       OUTPUT=BOTH    
 IEMINT=       0   IEFINT=       0                     IEDINT=       0
                                                       MORB  =       0
          EXTRAPOLATION IN EFFECT
          SOSCF IN EFFECT
 ORBITAL PRINTING OPTION: NPREO=     1    65     2     1

     -------------------------------
     INTEGRAL TRANSFORMATION OPTIONS
     -------------------------------
     NWORD  =            0
     CUTOFF = 1.0E-09     MPTRAN =       0
     DIRTRF =       F     AOINTS =DUP     

          ----------------------
          INTEGRAL INPUT OPTIONS
          ----------------------
 NOPK  =       1 NORDER=       0 SCHWRZ=       F

     ------------------------------------------
     THE POINT GROUP IS C1 , NAXIS= 0, ORDER= 1
     ------------------------------------------

 -- VARIATIONAL SPACE WILL BE RESTRICTED TO PURE SPHERICAL HARMONICS ONLY --
 AFTER EXCLUDING CONTAMINANT COMBINATIONS FROM THE CARTESIAN GAUSSIAN BASIS
 SET, THE NUMBER OF SPHERICAL HARMONICS KEPT IN THE VARIATION SPACE IS   58

     DIMENSIONS OF THE SYMMETRY SUBSPACES ARE
 A   =   58

 ..... DONE SETTING UP THE RUN .....
 CPU     0: STEP CPU TIME=     0.02 TOTAL CPU TIME=        0.0 (    0.0 MIN)
 TOTAL WALL CLOCK TIME=        0.0 SECONDS, CPU UTILIZATION IS 100.00%

     ---------------------------------
     HESSIAN MATRIX CONTROL PARAMETERS
     ---------------------------------
     METHOD=SEMINUM    NVIB  =       2   VIBSIZ= 0.01000
     RDHESS=       F   PURIFY=       F   PRTIFC=       F
     VIBANL=       T   DECOMP=       F   PROJCT=       F
     SCLFAC= 1.00000   PRTSCN=       F   NPRT  =       0
     PULCOR=       F   NPUN  =       0   REDOVB=       T
     THERMOCHEMISTRY WILL BE PRINTED FOR    1 TEMPERATURES:
      298.15000
1   ATOM  0
                                        -------------------
   COORD  0                             NUCLEAR COORDINATES
                                        -------------------
     VIB  0

                       ATOM             X              Y              Z

                 1  H                0.000000      -1.419574      -0.041610
                 2  H                0.000000       1.419574      -0.041610
                 3  O                0.000000       0.000000       1.028084

          ********************
          1 ELECTRON INTEGRALS
          ********************
 ...... END OF ONE-ELECTRON INTEGRALS ......
 CPU     0: STEP CPU TIME=     0.00 TOTAL CPU TIME=        0.0 (    0.0 MIN)
 TOTAL WALL CLOCK TIME=        0.0 SECONDS, CPU UTILIZATION IS  66.67%

          -------------
          GUESS OPTIONS
          -------------
          GUESS =HUCKEL            NORB  =       0          NORDER=       0
          MIX   =       F          PRTMO =       F          PUNMO =       F
          TOLZ  = 1.0E-08          TOLE  = 1.0E-05
          SYMDEN=       F          PURIFY=       F

 INITIAL GUESS ORBITALS GENERATED BY HUCKEL   ROUTINE.
 HUCKEL GUESS REQUIRES     33019 WORDS.

 STATISTICS FOR GENERATION OF SYMMETRY ORBITAL -Q- MATRIX
 NUMBER OF CARTESIAN ATOMIC ORBITALS=         65
 NUMBER OF SPHERICAL CONTAMINANTS DROPPED=     7
 NUMBER OF LINEARLY DEPENDENT MOS DROPPED=     0
 TOTAL NUMBER OF MOS IN VARIATION SPACE=      58

 SYMMETRIES FOR INITIAL GUESS ORBITALS FOLLOW.   BOTH SET(S).
     5 ORBITALS ARE OCCUPIED (    1 CORE ORBITALS).
     2=A        3=A        4=A        5=A        6=A        7=A        8=A   
     9=A       10=A       11=A       12=A       13=A       14=A       15=A   
 ...... END OF INITIAL ORBITAL SELECTION ......
 CPU     0: STEP CPU TIME=     0.00 TOTAL CPU TIME=        0.0 (    0.0 MIN)
 TOTAL WALL CLOCK TIME=        0.0 SECONDS, CPU UTILIZATION IS  66.67%

                    ----------------------
                    AO INTEGRAL TECHNOLOGY
                    ----------------------
     S,P,L SHELL ROTATED AXIS INTEGRALS, REPROGRAMMED BY
        KAZUYA ISHIMURA (IMS) AND JOSE SIERRA (SYNSTAR).
     S,P,D,L SHELL ROTATED AXIS INTEGRALS PROGRAMMED BY
        KAZUYA ISHIMURA (INSTITUTE FOR MOLECULAR SCIENCE).
     S,P,D,F,G SHELL TO TOTAL QUARTET ANGULAR MOMENTUM SUM 5,
        ERIC PROGRAM BY GRAHAM FLETCHER (ELORET AND NASA ADVANCED
        SUPERCOMPUTING DIVISION, AMES RESEARCH CENTER).
     S,P,D,F,G,L SHELL GENERAL RYS QUADRATURE PROGRAMMED BY
        MICHEL DUPUIS (PACIFIC NORTHWEST NATIONAL LABORATORY).

          --------------------
          2 ELECTRON INTEGRALS
          --------------------

 THE -PK- OPTION IS OFF, THE INTEGRALS ARE NOT IN SUPERMATRIX FORM.
 STORING   15000 INTEGRALS/RECORD ON DISK, USING 12 BYTES/INTEGRAL.
 TWO ELECTRON INTEGRAL EVALUATION REQUIRES   99353 WORDS OF MEMORY.
 II,JST,KST,LST =  1  1  1  1 NREC =         1 INTLOC =    1
 II,JST,KST,LST =  2  1  1  1 NREC =         1 INTLOC =    1
 II,JST,KST,LST =  3  1  1  1 NREC =         1 INTLOC =    5
 II,JST,KST,LST =  4  1  1  1 NREC =         1 INTLOC =    5
 II,JST,KST,LST =  5  1  1  1 NREC =         1 INTLOC =    5
 II,JST,KST,LST =  6  1  1  1 NREC =         1 INTLOC =   65
 II,JST,KST,LST =  7  1  1  1 NREC =         1 INTLOC =  788
 II,JST,KST,LST =  8  1  1  1 NREC =         1 INTLOC =  895
 II,JST,KST,LST =  9  1  1  1 NREC =         1 INTLOC = 1491
 II,JST,KST,LST = 10  1  1  1 NREC =         1 INTLOC = 2064
 II,JST,KST,LST = 11  1  1  1 NREC =         1 INTLOC = 3826
 II,JST,KST,LST = 12  1  1  1 NREC =         1 INTLOC = 5605
 II,JST,KST,LST = 13  1  1  1 NREC =         2 INTLOC =  338
 II,JST,KST,LST = 14  1  1  1 NREC =         2 INTLOC = 4982
 II,JST,KST,LST = 15  1  1  1 NREC =         2 INTLOC =11795
 II,JST,KST,LST = 16  1  1  1 NREC =         2 INTLOC =13374
 II,JST,KST,LST = 17  1  1  1 NREC =         3 INTLOC = 5570
 II,JST,KST,LST = 18  1  1  1 NREC =         4 INTLOC = 1041
 II,JST,KST,LST = 19  1  1  1 NREC =         6 INTLOC = 3938
 II,JST,KST,LST = 20  1  1  1 NREC =         7 INTLOC = 6045
 II,JST,KST,LST = 21  1  1  1 NREC =        13 INTLOC = 2961
 II,JST,KST,LST = 22  1  1  1 NREC =        20 INTLOC =12953
 TOTAL NUMBER OF NONZERO TWO-ELECTRON INTEGRALS =             1083295
         73 INTEGRAL RECORDS WERE STORED ON DISK FILE  8.
  ...... END OF TWO-ELECTRON INTEGRALS .....
 CPU     0: STEP CPU TIME=     0.10 TOTAL CPU TIME=        0.1 (    0.0 MIN)
 TOTAL WALL CLOCK TIME=        0.1 SECONDS, CPU UTILIZATION IS  92.31%

          --------------------------
                 RHF SCF CALCULATION
          --------------------------

     NUCLEAR ENERGY =         9.3537236493
     MAXIT =   30     NPUNCH=    2
     EXTRAP=T  DAMP=F  SHIFT=F  RSTRCT=F  DIIS=F  DEM=F  SOSCF=T
     DENSITY MATRIX CONV=  1.00E-05
     SOSCF WILL OPTIMIZE     265 ORBITAL ROTATIONS, SOGTOL=   0.250
     MEMORY REQUIRED FOR RHF ITERS=     61545 WORDS.

 ITER EX DEM     TOTAL ENERGY        E CHANGE  DENSITY CHANGE     ORB. GRAD
   1  0  0      -75.7722851295   -75.7722851295   0.205491523   0.000000000
          ---------------START SECOND ORDER SCF---------------
   2  1  0      -76.0429734052    -0.2706882757   0.041247334   0.037173446
   3  2  0      -76.0564409322    -0.0134675270   0.020421463   0.011641856
   4  3  0      -76.0577073932    -0.0012664610   0.003912068   0.003306174
   5  4  0      -76.0577588806    -0.0000514874   0.000646625   0.001287825
   6  5  0      -76.0577691383    -0.0000102577   0.000236603   0.000270389
   7  6  0      -76.0577696907    -0.0000005523   0.000034194   0.000032168
   8  7  0      -76.0577697012    -0.0000000105   0.000010476   0.000008782
   9  8  0      -76.0577697019    -0.0000000007   0.000004484   0.000002838
  10  9  0      -76.0577697019    -0.0000000001   0.000000976   0.000000695

          -----------------
          DENSITY CONVERGED
          -----------------
     TIME TO FORM FOCK OPERATORS=       0.1 SECONDS (       0.0 SEC/ITER)
     TIME TO SOLVE SCF EQUATIONS=       0.0 SECONDS (       0.0 SEC/ITER)

 FINAL RHF ENERGY IS      -76.0577697019 AFTER  10 ITERATIONS

          ------------
          EIGENVECTORS
          ------------

                      1          2          3          4          5
                  -20.5510    -1.3533    -0.7219    -0.5779    -0.5054
                     A          A          A          A          A   
    1  H  1  S    0.000519   0.092092  -0.144887  -0.085138  -0.000000
    2  H  1  S    0.000931   0.073019  -0.222100  -0.135524  -0.000000
    3  H  1  S   -0.000250   0.005982  -0.058203  -0.023651  -0.000000
    4  H  1  X    0.000000   0.000000  -0.000000  -0.000000   0.010561
    5  H  1  Y    0.000197   0.010990  -0.010505  -0.009824  -0.000000
    6  H  1  Z    0.000090   0.007512  -0.013346   0.001158  -0.000000
    7  H  1  X    0.000000   0.000000  -0.000000  -0.000000   0.031345
    8  H  1  Y    0.000421   0.009748  -0.020687  -0.020781  -0.000000
    9  H  1  Z    0.000271   0.004559  -0.024067   0.013212  -0.000000
   10  H  1 XX    0.000066  -0.001237   0.003983   0.001717  -0.000000
   11  H  1 YY   -0.000011   0.001361  -0.002164  -0.004101  -0.000000
   12  H  1 ZZ   -0.000054  -0.000124  -0.001819   0.002384  -0.000000
   13  H  1 XY    0.000000   0.000000  -0.000000  -0.000000   0.004217
   14  H  1 XZ    0.000000   0.000000  -0.000000  -0.000000   0.002864
   15  H  1 YZ   -0.000171   0.002058  -0.006199  -0.000620  -0.000000
   16  H  2  S    0.000519   0.092092   0.144887  -0.085138  -0.000000
   17  H  2  S    0.000931   0.073019   0.222100  -0.135524  -0.000000
   18  H  2  S   -0.000250   0.005982   0.058203  -0.023651  -0.000000
   19  H  2  X    0.000000   0.000000  -0.000000  -0.000000   0.010561
   20  H  2  Y   -0.000197  -0.010990  -0.010505   0.009824  -0.000000
   21  H  2  Z    0.000090   0.007512   0.013346   0.001158  -0.000000
   22  H  2  X    0.000000   0.000000  -0.000000  -0.000000   0.031345
   23  H  2  Y   -0.000421  -0.009748  -0.020687   0.020781  -0.000000
   24  H  2  Z    0.000271   0.004559   0.024067   0.013212  -0.000000
   25  H  2 XX    0.000066  -0.001237  -0.003983   0.001717  -0.000000
   26  H  2 YY   -0.000011   0.001361   0.002164  -0.004101  -0.000000
   27  H  2 ZZ   -0.000054  -0.000124   0.001819   0.002384  -0.000000
   28  H  2 XY    0.000000   0.000000  -0.000000  -0.000000  -0.004217
   29  H  2 XZ    0.000000   0.000000  -0.000000  -0.000000   0.002864
   30  H  2 YZ    0.000171  -0.002058  -0.006199   0.000620  -0.000000
   31  O  3  S    0.975880  -0.009242  -0.000000   0.002564  -0.000000
   32  O  3  S   -0.000515   0.502222  -0.000000   0.178937  -0.000000
   33  O  3  S    0.043572   0.131654  -0.000000   0.053026  -0.000000
   34  O  3  S    0.001264   0.279734  -0.000000   0.277724  -0.000000
   35  O  3  X    0.000000   0.000000  -0.000000  -0.000000   0.356600
   36  O  3  Y    0.000000   0.000000   0.283982  -0.000000  -0.000000
   37  O  3  Z   -0.001887  -0.046084  -0.000000   0.315009  -0.000000
   38  O  3  X    0.000000   0.000000  -0.000000  -0.000000   0.443716
   39  O  3  Y    0.000000   0.000000   0.337470  -0.000000  -0.000000
   40  O  3  Z    0.001404  -0.064748  -0.000000   0.384520  -0.000000
   41  O  3  X    0.000000   0.000000  -0.000000  -0.000000   0.375105
   42  O  3  Y    0.000000   0.000000   0.153046  -0.000000  -0.000000
   43  O  3  Z    0.000134  -0.012564  -0.000000   0.279472  -0.000000
   44  O  3 XX   -0.000075  -0.003964  -0.000000   0.005582  -0.000000
   45  O  3 YY    0.000055   0.003020  -0.000000  -0.000029  -0.000000
   46  O  3 ZZ    0.000020   0.000944  -0.000000  -0.005553  -0.000000
   47  O  3 XY    0.000000   0.000000  -0.000000  -0.000000  -0.000000
   48  O  3 XZ    0.000000   0.000000  -0.000000  -0.000000  -0.005296
   49  O  3 YZ    0.000000   0.000000  -0.013097  -0.000000  -0.000000
   50  O  3 XX    0.000495  -0.008025  -0.000000   0.013977  -0.000000
   51  O  3 YY   -0.000343   0.005457  -0.000000   0.004032  -0.000000
   52  O  3 ZZ   -0.000152   0.002568  -0.000000  -0.018008  -0.000000
   53  O  3 XY    0.000000   0.000000  -0.000000  -0.000000  -0.000000
   54  O  3 XZ    0.000000   0.000000  -0.000000  -0.000000  -0.018035
   55  O  3 YZ    0.000000   0.000000  -0.021360  -0.000000  -0.000000
   56  O  3 XXX   0.000000   0.000000  -0.000000  -0.000000  -0.004144
   57  O  3 YYY   0.000000   0.000000   0.002606  -0.000000  -0.000000
   58  O  3 ZZZ   0.000001   0.000920  -0.000000   0.000574  -0.000000
   59  O  3 XXY   0.000000   0.000000  -0.003450  -0.000000  -0.000000
   60  O  3 XXZ  -0.000068   0.001861  -0.000000  -0.003133  -0.000000
   61  O  3 YYX   0.000000   0.000000  -0.000000  -0.000000   0.003935
   62  O  3 YYZ   0.000068  -0.003096  -0.000000   0.002363  -0.000000
   63  O  3 ZZX   0.000000   0.000000  -0.000000  -0.000000   0.001625
   64  O  3 ZZY   0.000000   0.000000  -0.000046  -0.000000  -0.000000
   65  O  3 XYZ   0.000000   0.000000  -0.000000  -0.000000  -0.000000

                      6          7          8          9         10
                    0.1442     0.2052     0.5536     0.6064     0.6666
                     A          A          A          A          A   
    1  H  1  S   -0.026098   0.014144   0.098890   0.080759   0.034435
    2  H  1  S   -0.314499   0.154113   1.652059   1.616589  -2.308244
    3  H  1  S   -0.932590   1.793904  -0.514978  -0.525570  -0.516186
    4  H  1  X   -0.000000  -0.000000   0.000000   0.000000   0.000000
    5  H  1  Y    0.005401  -0.011929   0.053003   0.036152  -0.022440
    6  H  1  Z    0.000648  -0.011290   0.032397   0.021857  -0.016073
    7  H  1  X   -0.000000  -0.000000   0.000000   0.000000   0.000000
    8  H  1  Y   -0.156958   0.140402   0.075195  -0.142940  -1.001870
    9  H  1  Z   -0.114982   0.113905  -0.008485   0.124762  -0.577115
   10  H  1 XX    0.009322  -0.007443  -0.012011  -0.017727   0.041837
   11  H  1 YY   -0.005588   0.008485   0.019098   0.002308  -0.047899
   12  H  1 ZZ   -0.003734  -0.001042  -0.007087   0.015419   0.006062
   13  H  1 XY   -0.000000  -0.000000   0.000000   0.000000   0.000000
   14  H  1 XZ   -0.000000  -0.000000   0.000000   0.000000   0.000000
   15  H  1 YZ   -0.017816   0.009321   0.031975   0.016912  -0.059925
   16  H  2  S   -0.026098  -0.014144  -0.098890   0.080759   0.034435
   17  H  2  S   -0.314499  -0.154113  -1.652059   1.616589  -2.308244
   18  H  2  S   -0.932590  -1.793904   0.514978  -0.525570  -0.516186
   19  H  2  X   -0.000000  -0.000000   0.000000   0.000000   0.000000
   20  H  2  Y   -0.005401  -0.011929   0.053003  -0.036152   0.022440
   21  H  2  Z    0.000648   0.011290  -0.032397   0.021857  -0.016073
   22  H  2  X   -0.000000  -0.000000   0.000000   0.000000   0.000000
   23  H  2  Y    0.156958   0.140402   0.075195   0.142940   1.001870
   24  H  2  Z   -0.114982  -0.113905   0.008485   0.124762  -0.577115
   25  H  2 XX    0.009322   0.007443   0.012011  -0.017727   0.041837
   26  H  2 YY   -0.005588  -0.008485  -0.019098   0.002308  -0.047899
   27  H  2 ZZ   -0.003734   0.001042   0.007087   0.015419   0.006062
   28  H  2 XY   -0.000000  -0.000000   0.000000   0.000000   0.000000
   29  H  2 XZ   -0.000000  -0.000000   0.000000   0.000000   0.000000
   30  H  2 YZ    0.017816   0.009321   0.031975  -0.016912   0.059925
   31  O  3  S   -0.026970  -0.000000   0.000000  -0.027311   0.043192
   32  O  3  S    0.108906  -0.000000   0.000000  -0.205120   0.074794
   33  O  3  S    0.040013  -0.000000   0.000000  -0.023877  -0.037184
   34  O  3  S    1.628744  -0.000000   0.000000  -1.162737   4.778780
   35  O  3  X   -0.000000  -0.000000   0.000000   0.000000   0.000000
   36  O  3  Y   -0.000000   0.132050   0.099094   0.000000   0.000000
   37  O  3  Z   -0.074051  -0.000000   0.000000   0.073351   0.249991
   38  O  3  X   -0.000000  -0.000000   0.000000   0.000000   0.000000
   39  O  3  Y   -0.000000   0.201867   0.302910   0.000000   0.000000
   40  O  3  Z   -0.193590  -0.000000   0.000000   0.155684   0.099078
   41  O  3  X   -0.000000  -0.000000   0.000000   0.000000   0.000000
   42  O  3  Y   -0.000000   0.858578   1.390444   0.000000   0.000000
   43  O  3  Z   -0.466363  -0.000000   0.000000   0.840666  -2.663775
   44  O  3 XX    0.001591  -0.000000   0.000000  -0.015713   0.026296
   45  O  3 YY   -0.002518  -0.000000   0.000000   0.022314  -0.009404
   46  O  3 ZZ    0.000927  -0.000000   0.000000  -0.006602  -0.016891
   47  O  3 XY   -0.000000  -0.000000   0.000000   0.000000   0.000000
   48  O  3 XZ   -0.000000  -0.000000   0.000000   0.000000   0.000000
   49  O  3 YZ   -0.000000   0.002715   0.027313   0.000000   0.000000
   50  O  3 XX   -0.051353  -0.000000   0.000000   0.052181  -0.282848
   51  O  3 YY    0.044317  -0.000000   0.000000  -0.066664   0.199886
   52  O  3 ZZ    0.007036  -0.000000   0.000000   0.014483   0.082962
   53  O  3 XY   -0.000000  -0.000000   0.000000   0.000000   0.000000
   54  O  3 XZ   -0.000000  -0.000000   0.000000   0.000000   0.000000
   55  O  3 YZ   -0.000000  -0.059942  -0.161667   0.000000   0.000000
   56  O  3 XXX  -0.000000  -0.000000   0.000000   0.000000   0.000000
   57  O  3 YYY  -0.000000   0.001670   0.003621   0.000000   0.000000
   58  O  3 ZZZ   0.004490  -0.000000   0.000000  -0.012188   0.009901
   59  O  3 XXY  -0.000000  -0.002913  -0.022668   0.000000   0.000000
   60  O  3 XXZ   0.004448  -0.000000   0.000000  -0.009909   0.018070
   61  O  3 YYX  -0.000000  -0.000000   0.000000   0.000000   0.000000
   62  O  3 YYZ  -0.010472  -0.000000   0.000000   0.026262  -0.031353
   63  O  3 ZZX  -0.000000  -0.000000   0.000000   0.000000   0.000000
   64  O  3 ZZY  -0.000000   0.000673   0.017810   0.000000   0.000000
   65  O  3 XYZ  -0.000000  -0.000000   0.000000   0.000000   0.000000

                     11         12         13         14         15
                    0.7874     0.8049     0.8113     0.8615     0.9638
                     A          A          A          A          A   
    1  H  1  S    0.000000  -0.024873  -0.009591  -0.000000   0.000000
    2  H  1  S    0.000000   1.712605   0.873364  -0.000000   0.000000
    3  H  1  S    0.000000   1.517146  -0.289610  -0.000000   0.000000
    4  H  1  X   -0.009695   0.000000   0.000000   0.058158   0.072926
    5  H  1  Y    0.000000   0.045760  -0.021998  -0.000000   0.000000
    6  H  1  Z    0.000000   0.032419   0.034684  -0.000000   0.000000
    7  H  1  X   -0.033019   0.000000   0.000000  -0.856166  -1.025380
    8  H  1  Y    0.000000   0.953364   0.475231  -0.000000   0.000000
    9  H  1  Z    0.000000   0.767633  -0.753085  -0.000000   0.000000
   10  H  1 XX    0.000000  -0.053063  -0.003583  -0.000000   0.000000
   11  H  1 YY    0.000000   0.055358   0.051221  -0.000000   0.000000
   12  H  1 ZZ    0.000000  -0.002295  -0.047639  -0.000000   0.000000
   13  H  1 XY   -0.020989   0.000000   0.000000  -0.016604  -0.042002
   14  H  1 XZ   -0.013436   0.000000   0.000000  -0.028180  -0.003191
   15  H  1 YZ    0.000000   0.089668  -0.033504  -0.000000   0.000000
   16  H  2  S    0.000000   0.024873  -0.009591  -0.000000   0.000000
   17  H  2  S    0.000000  -1.712605   0.873364  -0.000000   0.000000
   18  H  2  S    0.000000  -1.517146  -0.289610  -0.000000   0.000000
   19  H  2  X   -0.009695   0.000000   0.000000  -0.058158   0.072926
   20  H  2  Y    0.000000   0.045760   0.021998  -0.000000   0.000000
   21  H  2  Z    0.000000  -0.032419   0.034684  -0.000000   0.000000
   22  H  2  X   -0.033019   0.000000   0.000000   0.856166  -1.025380
   23  H  2  Y    0.000000   0.953364  -0.475231  -0.000000   0.000000
   24  H  2  Z    0.000000  -0.767633  -0.753085  -0.000000   0.000000
   25  H  2 XX    0.000000   0.053063  -0.003583  -0.000000   0.000000
   26  H  2 YY    0.000000  -0.055358   0.051221  -0.000000   0.000000
   27  H  2 ZZ    0.000000   0.002295  -0.047639  -0.000000   0.000000
   28  H  2 XY    0.020989   0.000000   0.000000  -0.016604   0.042002
   29  H  2 XZ   -0.013436   0.000000   0.000000   0.028180  -0.003191
   30  H  2 YZ    0.000000   0.089668   0.033504  -0.000000   0.000000
   31  O  3  S    0.000000   0.000000  -0.020037  -0.000000   0.000000
   32  O  3  S    0.000000   0.000000  -0.137249  -0.000000   0.000000
   33  O  3  S    0.000000   0.000000  -0.026650  -0.000000   0.000000
   34  O  3  S    0.000000   0.000000  -0.429759  -0.000000   0.000000
   35  O  3  X   -0.257266   0.000000   0.000000  -0.000000   0.035909
   36  O  3  Y    0.000000  -0.278357   0.000000  -0.000000   0.000000
   37  O  3  Z    0.000000   0.000000   0.058869  -0.000000   0.000000
   38  O  3  X   -0.768248   0.000000   0.000000  -0.000000   0.111877
   39  O  3  Y    0.000000   0.057437   0.000000  -0.000000   0.000000
   40  O  3  Z    0.000000   0.000000   0.148203  -0.000000   0.000000
   41  O  3  X    1.221070   0.000000   0.000000  -0.000000   1.116960
   42  O  3  Y    0.000000   3.011092   0.000000  -0.000000   0.000000
   43  O  3  Z    0.000000   0.000000   1.279392  -0.000000   0.000000
   44  O  3 XX    0.000000   0.000000  -0.009349  -0.000000   0.000000
   45  O  3 YY    0.000000   0.000000  -0.027264  -0.000000   0.000000
   46  O  3 ZZ    0.000000   0.000000   0.036613  -0.000000   0.000000
   47  O  3 XY    0.000000   0.000000   0.000000   0.028662   0.000000
   48  O  3 XZ    0.009813   0.000000   0.000000  -0.000000   0.023944
   49  O  3 YZ    0.000000   0.022079   0.000000  -0.000000   0.000000
   50  O  3 XX    0.000000   0.000000  -0.006120  -0.000000   0.000000
   51  O  3 YY    0.000000   0.000000   0.160323  -0.000000   0.000000
   52  O  3 ZZ    0.000000   0.000000  -0.154203  -0.000000   0.000000
   53  O  3 XY    0.000000   0.000000   0.000000  -0.044858   0.000000
   54  O  3 XZ   -0.039851   0.000000   0.000000  -0.000000  -0.005629
   55  O  3 YZ    0.000000  -0.449164   0.000000  -0.000000   0.000000
   56  O  3 XXX  -0.007983   0.000000   0.000000  -0.000000  -0.018267
   57  O  3 YYY   0.000000   0.000765   0.000000  -0.000000   0.000000
   58  O  3 ZZZ   0.000000   0.000000   0.017901  -0.000000   0.000000
   59  O  3 XXY   0.000000  -0.027996   0.000000  -0.000000   0.000000
   60  O  3 XXZ   0.000000   0.000000  -0.012559  -0.000000   0.000000
   61  O  3 YYX   0.007368   0.000000   0.000000  -0.000000   0.018436
   62  O  3 YYZ   0.000000   0.000000  -0.011458  -0.000000   0.000000
   63  O  3 ZZX   0.003342   0.000000   0.000000  -0.000000   0.006072
   64  O  3 ZZY   0.000000   0.026970   0.000000  -0.000000   0.000000
   65  O  3 XYZ   0.000000   0.000000   0.000000   0.017723   0.000000

                     16         17         18         19         20
                    1.1186     1.2025     1.5461     1.5891     2.0307
                     A          A          A          A          A   
    1  H  1  S    0.018456  -0.009217   0.133946  -0.110501  -0.390034
    2  H  1  S   -3.062123   0.923112   1.569786  -0.854100   4.720275
    3  H  1  S   -0.617343   0.074113   0.759615  -0.279122   0.262951
    4  H  1  X   -0.000000  -0.000000   0.000000   0.000000  -0.000000
    5  H  1  Y   -0.083263   0.069073  -0.069012   0.144590   0.184808
    6  H  1  Z   -0.086389  -0.059055  -0.056554   0.107742   0.178041
    7  H  1  X   -0.000000  -0.000000   0.000000   0.000000  -0.000000
    8  H  1  Y   -1.204787  -0.661968   1.492735  -1.044994   1.818075
    9  H  1  Z   -0.704029   1.037724   1.116851  -0.773082   1.267159
   10  H  1 XX    0.103779  -0.006057  -0.046181  -0.008409  -0.131643
   11  H  1 YY   -0.068700  -0.007797   0.054136   0.007653   0.150009
   12  H  1 ZZ   -0.035079   0.013853  -0.007956   0.000756  -0.018366
   13  H  1 XY   -0.000000  -0.000000   0.000000   0.000000  -0.000000
   14  H  1 XZ   -0.000000  -0.000000   0.000000   0.000000  -0.000000
   15  H  1 YZ   -0.149392   0.008822   0.091966   0.045748   0.263117
   16  H  2  S    0.018456   0.009217  -0.133946  -0.110501   0.390034
   17  H  2  S   -3.062123  -0.923112  -1.569786  -0.854100  -4.720275
   18  H  2  S   -0.617343  -0.074113  -0.759615  -0.279122  -0.262951
   19  H  2  X   -0.000000  -0.000000   0.000000   0.000000  -0.000000
   20  H  2  Y    0.083263   0.069073  -0.069012  -0.144590   0.184808
   21  H  2  Z   -0.086389   0.059055   0.056554   0.107742  -0.178041
   22  H  2  X   -0.000000  -0.000000   0.000000   0.000000  -0.000000
   23  H  2  Y    1.204787  -0.661968   1.492735   1.044994   1.818075
   24  H  2  Z   -0.704029  -1.037724  -1.116851  -0.773082  -1.267159
   25  H  2 XX    0.103779   0.006057   0.046181  -0.008409   0.131643
   26  H  2 YY   -0.068700   0.007797  -0.054136   0.007653  -0.150009
   27  H  2 ZZ   -0.035079  -0.013853   0.007956   0.000756   0.018366
   28  H  2 XY   -0.000000  -0.000000   0.000000   0.000000  -0.000000
   29  H  2 XZ   -0.000000  -0.000000   0.000000   0.000000  -0.000000
   30  H  2 YZ    0.149392   0.008822   0.091966  -0.045748   0.263117
   31  O  3  S   -0.226051  -0.000000   0.000000   0.325299  -0.000000
   32  O  3  S   -0.766380  -0.000000   0.000000   0.931351  -0.000000
   33  O  3  S   -0.243616  -0.000000   0.000000   0.270564  -0.000000
   34  O  3  S    7.229976  -0.000000   0.000000   1.816051  -0.000000
   35  O  3  X   -0.000000  -0.000000   0.000000   0.000000  -0.000000
   36  O  3  Y   -0.000000   0.023104   0.202702   0.000000   0.014122
   37  O  3  Z   -0.060092  -0.000000   0.000000  -0.179569  -0.000000
   38  O  3  X   -0.000000  -0.000000   0.000000   0.000000  -0.000000
   39  O  3  Y   -0.000000   0.143822   1.289732   0.000000   1.964645
   40  O  3  Z   -1.087373  -0.000000   0.000000  -0.567899  -0.000000
   41  O  3  X   -0.000000  -0.000000   0.000000   0.000000  -0.000000
   42  O  3  Y   -0.000000   1.701864   0.948609   0.000000   2.881505
   43  O  3  Z   -1.714249  -0.000000   0.000000  -0.244125  -0.000000
   44  O  3 XX    0.007291  -0.000000   0.000000   0.008666  -0.000000
   45  O  3 YY   -0.007679  -0.000000   0.000000  -0.010859  -0.000000
   46  O  3 ZZ    0.000389  -0.000000   0.000000   0.002193  -0.000000
   47  O  3 XY   -0.000000  -0.000000   0.000000   0.000000  -0.000000
   48  O  3 XZ   -0.000000  -0.000000   0.000000   0.000000  -0.000000
   49  O  3 YZ   -0.000000   0.001651  -0.003279   0.000000  -0.023623
   50  O  3 XX   -0.238082  -0.000000   0.000000   0.268396  -0.000000
   51  O  3 YY    0.290702  -0.000000   0.000000  -0.280159  -0.000000
   52  O  3 ZZ   -0.052620  -0.000000   0.000000   0.011763  -0.000000
   53  O  3 XY   -0.000000  -0.000000   0.000000   0.000000  -0.000000
   54  O  3 XZ   -0.000000  -0.000000   0.000000   0.000000  -0.000000
   55  O  3 YZ   -0.000000  -0.057747   0.084367   0.000000  -1.715819
   56  O  3 XXX  -0.000000  -0.000000   0.000000   0.000000  -0.000000
   57  O  3 YYY  -0.000000   0.012918   0.001897   0.000000   0.001146
   58  O  3 ZZZ   0.042243  -0.000000   0.000000  -0.031985  -0.000000
   59  O  3 XXY  -0.000000  -0.010940   0.006886   0.000000  -0.125982
   60  O  3 XXZ   0.038172  -0.000000   0.000000  -0.033116  -0.000000
   61  O  3 YYX  -0.000000  -0.000000   0.000000   0.000000  -0.000000
   62  O  3 YYZ  -0.094846  -0.000000   0.000000   0.076028  -0.000000
   63  O  3 ZZX  -0.000000  -0.000000   0.000000   0.000000  -0.000000
   64  O  3 ZZY  -0.000000  -0.006391  -0.009432   0.000000   0.124444
   65  O  3 XYZ  -0.000000  -0.000000   0.000000   0.000000  -0.000000

                     21         22         23         24         25
                    2.0366     2.0756     2.1713     2.2315     2.6097
                     A          A          A          A          A   
    1  H  1  S    0.000000   0.000000   0.284764   0.203821  -0.911034
    2  H  1  S    0.000000   0.000000  -2.081408  -4.279374   1.250310
    3  H  1  S    0.000000   0.000000  -0.006611  -0.163498  -0.345601
    4  H  1  X   -0.036310  -0.054020   0.000000   0.000000   0.000000
    5  H  1  Y    0.000000   0.000000  -0.108522  -0.055241   0.115126
    6  H  1  Z    0.000000   0.000000   0.031122  -0.060759   0.109150
    7  H  1  X    0.694110   0.638182   0.000000   0.000000   0.000000
    8  H  1  Y    0.000000   0.000000  -0.365902  -1.583355   0.194517
    9  H  1  Z    0.000000   0.000000  -1.079841  -0.662222  -0.107533
   10  H  1 XX    0.000000   0.000000   0.040076   0.041345  -0.153424
   11  H  1 YY    0.000000   0.000000   0.024780  -0.062855   0.117480
   12  H  1 ZZ    0.000000   0.000000  -0.064856   0.021510   0.035945
   13  H  1 XY   -0.015973   0.068589   0.000000   0.000000   0.000000
   14  H  1 XZ    0.078330  -0.004822   0.000000   0.000000   0.000000
   15  H  1 YZ    0.000000   0.000000  -0.061622  -0.103119  -0.083914
   16  H  2  S    0.000000   0.000000   0.284764   0.203821  -0.911034
   17  H  2  S    0.000000   0.000000  -2.081408  -4.279374   1.250310
   18  H  2  S    0.000000   0.000000  -0.006611  -0.163498  -0.345601
   19  H  2  X   -0.036310   0.054020   0.000000   0.000000   0.000000
   20  H  2  Y    0.000000   0.000000   0.108522   0.055241  -0.115126
   21  H  2  Z    0.000000   0.000000   0.031122  -0.060759   0.109150
   22  H  2  X    0.694110  -0.638182   0.000000   0.000000   0.000000
   23  H  2  Y    0.000000   0.000000   0.365902   1.583355  -0.194517
   24  H  2  Z    0.000000   0.000000  -1.079841  -0.662222  -0.107533
   25  H  2 XX    0.000000   0.000000   0.040076   0.041345  -0.153424
   26  H  2 YY    0.000000   0.000000   0.024780  -0.062855   0.117480
   27  H  2 ZZ    0.000000   0.000000  -0.064856   0.021510   0.035945
   28  H  2 XY    0.015973   0.068589   0.000000   0.000000   0.000000
   29  H  2 XZ    0.078330   0.004822   0.000000   0.000000   0.000000
   30  H  2 YZ    0.000000   0.000000   0.061622   0.103119   0.083914
   31  O  3  S    0.000000   0.000000   0.231619   0.165189  -0.212867
   32  O  3  S    0.000000   0.000000   0.545794   0.375087  -0.398864
   33  O  3  S    0.000000   0.000000   0.081169  -0.000286  -0.011491
   34  O  3  S    0.000000   0.000000   2.909620   6.933022  -0.267942
   35  O  3  X    0.003212   0.000000   0.000000   0.000000   0.000000
   36  O  3  Y    0.000000   0.000000   0.000000   0.000000   0.000000
   37  O  3  Z    0.000000   0.000000  -0.053503  -0.124889  -0.219483
   38  O  3  X   -0.071078   0.000000   0.000000   0.000000   0.000000
   39  O  3  Y    0.000000   0.000000   0.000000   0.000000   0.000000
   40  O  3  Z    0.000000   0.000000  -0.463579  -0.934413   0.321213
   41  O  3  X   -0.731981   0.000000   0.000000   0.000000   0.000000
   42  O  3  Y    0.000000   0.000000   0.000000   0.000000   0.000000
   43  O  3  Z    0.000000   0.000000  -0.409064  -2.730685   0.297520
   44  O  3 XX    0.000000   0.000000  -0.003983   0.001944   0.020783
   45  O  3 YY    0.000000   0.000000  -0.005548   0.000272  -0.024103
   46  O  3 ZZ    0.000000   0.000000   0.009532  -0.002217   0.003320
   47  O  3 XY    0.000000  -0.015357   0.000000   0.000000   0.000000
   48  O  3 XZ   -0.015029   0.000000   0.000000   0.000000   0.000000
   49  O  3 YZ    0.000000   0.000000   0.000000   0.000000   0.000000
   50  O  3 XX    0.000000   0.000000  -0.311579  -1.409757  -0.261415
   51  O  3 YY    0.000000   0.000000   1.327837   0.497435   0.573087
   52  O  3 ZZ    0.000000   0.000000  -1.016258   0.912322  -0.311673
   53  O  3 XY    0.000000   1.269569   0.000000   0.000000   0.000000
   54  O  3 XZ    1.178220   0.000000   0.000000   0.000000   0.000000
   55  O  3 YZ    0.000000   0.000000   0.000000   0.000000   0.000000
   56  O  3 XXX   0.013342   0.000000   0.000000   0.000000   0.000000
   57  O  3 YYY   0.000000   0.000000   0.000000   0.000000   0.000000
   58  O  3 ZZZ   0.000000   0.000000   0.051258   0.022171  -0.051433
   59  O  3 XXY   0.000000   0.000000   0.000000   0.000000   0.000000
   60  O  3 XXZ   0.000000   0.000000   0.023959   0.049887  -0.066685
   61  O  3 YYX  -0.002594   0.000000   0.000000   0.000000   0.000000
   62  O  3 YYZ   0.000000   0.000000  -0.092729  -0.079633   0.135689
   63  O  3 ZZX  -0.015306   0.000000   0.000000   0.000000   0.000000
   64  O  3 ZZY   0.000000   0.000000   0.000000   0.000000   0.000000
   65  O  3 XYZ   0.000000  -0.026796   0.000000   0.000000   0.000000

                     26         27         28         29         30
                    2.9732     3.3705     3.5077     3.5819     3.6696
                     A          A          A          A          A   
    1  H  1  S    0.837024  -0.000000   0.303841   0.000000  -0.330491
    2  H  1  S   -0.673651  -0.000000  -0.785406   0.000000   0.102780
    3  H  1  S    0.566004  -0.000000   0.051532   0.000000  -0.220913
    4  H  1  X    0.000000   0.211807   0.000000   0.463282   0.000000
    5  H  1  Y   -0.180032  -0.000000  -0.093063   0.000000   0.305407
    6  H  1  Z   -0.098793  -0.000000  -0.081764   0.000000  -0.006027
    7  H  1  X    0.000000  -0.237162   0.000000  -0.300729   0.000000
    8  H  1  Y    0.048426  -0.000000  -0.102133   0.000000  -0.359538
    9  H  1  Z   -0.039196  -0.000000  -0.171052   0.000000  -0.017700
   10  H  1 XX   -0.171278  -0.000000  -0.587094   0.000000  -0.380766
   11  H  1 YY    0.036667  -0.000000   0.467927   0.000000  -0.109252
   12  H  1 ZZ    0.134611  -0.000000   0.119166   0.000000   0.490018
   13  H  1 XY    0.000000  -0.371128   0.000000   0.367904   0.000000
   14  H  1 XZ    0.000000   0.528663   0.000000  -0.447854   0.000000
   15  H  1 YZ   -0.142830  -0.000000  -0.325314   0.000000  -0.425351
   16  H  2  S   -0.837024  -0.000000   0.303841   0.000000   0.330491
   17  H  2  S    0.673651  -0.000000  -0.785406   0.000000  -0.102780
   18  H  2  S   -0.566004  -0.000000   0.051532   0.000000   0.220913
   19  H  2  X    0.000000   0.211807   0.000000  -0.463282   0.000000
   20  H  2  Y   -0.180032  -0.000000   0.093063   0.000000   0.305407
   21  H  2  Z    0.098793  -0.000000  -0.081764   0.000000   0.006027
   22  H  2  X    0.000000  -0.237162   0.000000   0.300729   0.000000
   23  H  2  Y    0.048426  -0.000000   0.102133   0.000000  -0.359538
   24  H  2  Z    0.039196  -0.000000  -0.171052   0.000000   0.017700
   25  H  2 XX    0.171278  -0.000000  -0.587094   0.000000   0.380766
   26  H  2 YY   -0.036667  -0.000000   0.467927   0.000000   0.109252
   27  H  2 ZZ   -0.134611  -0.000000   0.119166   0.000000  -0.490018
   28  H  2 XY    0.000000   0.371128   0.000000   0.367904   0.000000
   29  H  2 XZ    0.000000   0.528663   0.000000   0.447854   0.000000
   30  H  2 YZ   -0.142830  -0.000000   0.325314   0.000000  -0.425351
   31  O  3  S    0.000000  -0.000000   0.022073   0.000000   0.000000
   32  O  3  S    0.000000  -0.000000   0.056448   0.000000   0.000000
   33  O  3  S    0.000000  -0.000000  -0.008185   0.000000   0.000000
   34  O  3  S    0.000000  -0.000000   0.895600   0.000000   0.000000
   35  O  3  X    0.000000  -0.087732   0.000000   0.000000   0.000000
   36  O  3  Y    0.339489  -0.000000   0.000000   0.000000  -0.028821
   37  O  3  Z    0.000000  -0.000000   0.075193   0.000000   0.000000
   38  O  3  X    0.000000   0.055989   0.000000   0.000000   0.000000
   39  O  3  Y   -0.495776  -0.000000   0.000000   0.000000  -0.045886
   40  O  3  Z    0.000000  -0.000000   0.004851   0.000000   0.000000
   41  O  3  X    0.000000   0.163302   0.000000   0.000000   0.000000
   42  O  3  Y    0.500118  -0.000000   0.000000   0.000000  -0.032789
   43  O  3  Z    0.000000  -0.000000  -0.273968   0.000000   0.000000
   44  O  3 XX    0.000000  -0.000000   0.006740   0.000000   0.000000
   45  O  3 YY    0.000000  -0.000000  -0.041693   0.000000   0.000000
   46  O  3 ZZ    0.000000  -0.000000   0.034953   0.000000   0.000000
   47  O  3 XY    0.000000  -0.000000   0.000000  -0.049108   0.000000
   48  O  3 XZ    0.000000  -0.020200   0.000000   0.000000   0.000000
   49  O  3 YZ    0.009009  -0.000000   0.000000   0.000000   0.063118
   50  O  3 XX    0.000000  -0.000000   0.317879   0.000000   0.000000
   51  O  3 YY    0.000000  -0.000000   0.131886   0.000000   0.000000
   52  O  3 ZZ    0.000000  -0.000000  -0.449765   0.000000   0.000000
   53  O  3 XY    0.000000  -0.000000   0.000000  -0.102800   0.000000
   54  O  3 XZ    0.000000  -0.375102   0.000000   0.000000   0.000000
   55  O  3 YZ   -0.665826  -0.000000   0.000000   0.000000   0.331355
   56  O  3 XXX   0.000000  -0.008991   0.000000   0.000000   0.000000
   57  O  3 YYY  -0.031452  -0.000000   0.000000   0.000000   0.001892
   58  O  3 ZZZ   0.000000  -0.000000  -0.029367   0.000000   0.000000
   59  O  3 XXY   0.135363  -0.000000   0.000000   0.000000   0.032837
   60  O  3 XXZ   0.000000  -0.000000   0.099778   0.000000   0.000000
   61  O  3 YYX   0.000000   0.107703   0.000000   0.000000   0.000000
   62  O  3 YYZ   0.000000  -0.000000  -0.060379   0.000000   0.000000
   63  O  3 ZZX   0.000000  -0.095640   0.000000   0.000000   0.000000
   64  O  3 ZZY  -0.093166  -0.000000   0.000000   0.000000  -0.035376
   65  O  3 XYZ   0.000000  -0.000000   0.000000   0.114952   0.000000

                     31         32         33         34         35
                    3.8164     3.8867     3.8999     3.9677     4.0259
                     A          A          A          A          A   
    1  H  1  S   -0.000000   0.042308   0.100345   0.000000   0.000000
    2  H  1  S   -0.000000  -0.034990   0.652197   0.000000   0.000000
    3  H  1  S   -0.000000   0.047170   0.085980   0.000000   0.000000
    4  H  1  X   -0.599027  -0.000000   0.000000  -0.690017   0.522575
    5  H  1  Y   -0.000000   0.337712   0.520008   0.000000   0.000000
    6  H  1  Z   -0.000000  -0.559753  -0.624213   0.000000   0.000000
    7  H  1  X    0.320131  -0.000000   0.000000   0.513277  -0.715088
    8  H  1  Y   -0.000000  -0.248140  -0.240057   0.000000   0.000000
    9  H  1  Z   -0.000000   0.624614   0.660292   0.000000   0.000000
   10  H  1 XX   -0.000000  -0.172956   0.092465   0.000000   0.000000
   11  H  1 YY   -0.000000  -0.366560   0.103848   0.000000   0.000000
   12  H  1 ZZ   -0.000000   0.539516  -0.196313   0.000000   0.000000
   13  H  1 XY   -0.212952  -0.000000   0.000000   0.486842  -0.472363
   14  H  1 XZ    0.086540  -0.000000   0.000000  -0.153472  -0.414399
   15  H  1 YZ   -0.000000   0.201365   0.006928   0.000000   0.000000
   16  H  2  S   -0.000000   0.042308  -0.100345   0.000000   0.000000
   17  H  2  S   -0.000000  -0.034990  -0.652197   0.000000   0.000000
   18  H  2  S   -0.000000   0.047170  -0.085980   0.000000   0.000000
   19  H  2  X   -0.599027  -0.000000   0.000000   0.690017   0.522575
   20  H  2  Y   -0.000000  -0.337712   0.520008   0.000000   0.000000
   21  H  2  Z   -0.000000  -0.559753   0.624213   0.000000   0.000000
   22  H  2  X    0.320131  -0.000000   0.000000  -0.513277  -0.715088
   23  H  2  Y   -0.000000   0.248140  -0.240057   0.000000   0.000000
   24  H  2  Z   -0.000000   0.624614  -0.660292   0.000000   0.000000
   25  H  2 XX   -0.000000  -0.172956  -0.092465   0.000000   0.000000
   26  H  2 YY   -0.000000  -0.366560  -0.103848   0.000000   0.000000
   27  H  2 ZZ   -0.000000   0.539516   0.196313   0.000000   0.000000
   28  H  2 XY    0.212952  -0.000000   0.000000   0.486842   0.472363
   29  H  2 XZ    0.086540  -0.000000   0.000000   0.153472  -0.414399
   30  H  2 YZ   -0.000000  -0.201365   0.006928   0.000000   0.000000
   31  O  3  S   -0.000000  -0.090306   0.000000   0.000000   0.000000
   32  O  3  S   -0.000000  -0.214989   0.000000   0.000000   0.000000
   33  O  3  S   -0.000000  -0.087632   0.000000   0.000000   0.000000
   34  O  3  S   -0.000000  -0.005141   0.000000   0.000000   0.000000
   35  O  3  X    0.783921  -0.000000   0.000000   0.000000   0.562798
   36  O  3  Y   -0.000000  -0.000000  -0.068935   0.000000   0.000000
   37  O  3  Z   -0.000000  -0.003633   0.000000   0.000000   0.000000
   38  O  3  X   -0.715052  -0.000000   0.000000   0.000000  -0.158326
   39  O  3  Y   -0.000000  -0.000000   0.135299   0.000000   0.000000
   40  O  3  Z   -0.000000  -0.205980   0.000000   0.000000   0.000000
   41  O  3  X    0.158820  -0.000000   0.000000   0.000000   0.751471
   42  O  3  Y   -0.000000  -0.000000   0.920393   0.000000   0.000000
   43  O  3  Z   -0.000000  -0.399947   0.000000   0.000000   0.000000
   44  O  3 XX   -0.000000   0.006937   0.000000   0.000000   0.000000
   45  O  3 YY   -0.000000   0.002840   0.000000   0.000000   0.000000
   46  O  3 ZZ   -0.000000  -0.009776   0.000000   0.000000   0.000000
   47  O  3 XY   -0.000000  -0.000000   0.000000   0.014256   0.000000
   48  O  3 XZ    0.042859  -0.000000   0.000000   0.000000   0.004049
   49  O  3 YZ   -0.000000  -0.000000   0.017105   0.000000   0.000000
   50  O  3 XX   -0.000000   0.022694   0.000000   0.000000   0.000000
   51  O  3 YY   -0.000000  -0.373005   0.000000   0.000000   0.000000
   52  O  3 ZZ   -0.000000   0.350312   0.000000   0.000000   0.000000
   53  O  3 XY   -0.000000  -0.000000   0.000000  -0.064198   0.000000
   54  O  3 XZ   -0.287214  -0.000000   0.000000   0.000000  -0.415037
   55  O  3 YZ   -0.000000  -0.000000  -0.457562   0.000000   0.000000
   56  O  3 XXX   0.093455  -0.000000   0.000000   0.000000  -0.157191
   57  O  3 YYY  -0.000000  -0.000000   0.152121   0.000000   0.000000
   58  O  3 ZZZ  -0.000000  -0.172355   0.000000   0.000000   0.000000
   59  O  3 XXY  -0.000000  -0.000000  -0.030563   0.000000   0.000000
   60  O  3 XXZ  -0.000000   0.089120   0.000000   0.000000   0.000000
   61  O  3 YYX  -0.036203  -0.000000   0.000000   0.000000   0.134832
   62  O  3 YYZ  -0.000000   0.142118   0.000000   0.000000   0.000000
   63  O  3 ZZX  -0.089180  -0.000000   0.000000   0.000000   0.076061
   64  O  3 ZZY  -0.000000  -0.000000  -0.173529   0.000000   0.000000
   65  O  3 XYZ  -0.000000  -0.000000   0.000000  -0.182709   0.000000

                     36         37         38         39         40
                    4.0871     4.2121     4.3490     4.4281     4.5985
                     A          A          A          A          A   
    1  H  1  S   -0.241567   0.101909  -0.000000  -0.225368  -0.074465
    2  H  1  S    1.828302  -2.133341  -0.000000  -0.899079   1.085509
    3  H  1  S    0.348526  -0.291851  -0.000000  -0.027074   0.089671
    4  H  1  X   -0.000000   0.000000   0.131093   0.000000   0.000000
    5  H  1  Y   -0.341035   0.532925  -0.000000  -0.153052  -0.194745
    6  H  1  Z   -0.406971   0.176418  -0.000000  -0.544282   0.231483
    7  H  1  X   -0.000000   0.000000   0.490807   0.000000   0.000000
    8  H  1  Y    1.214441  -1.348802  -0.000000   0.032000   1.063236
    9  H  1  Z    1.145051  -0.934014  -0.000000  -0.298120  -0.120988
   10  H  1 XX   -0.478756   0.179308  -0.000000   0.095118  -0.244633
   11  H  1 YY    0.122383  -0.139766  -0.000000   0.507029   0.779977
   12  H  1 ZZ    0.356374  -0.039542  -0.000000  -0.602147  -0.535344
   13  H  1 XY   -0.000000   0.000000   0.589682   0.000000   0.000000
   14  H  1 XZ   -0.000000   0.000000   0.736910   0.000000   0.000000
   15  H  1 YZ    0.449258  -0.473830  -0.000000   0.123803  -0.314496
   16  H  2  S    0.241567   0.101909  -0.000000  -0.225368   0.074465
   17  H  2  S   -1.828302  -2.133341  -0.000000  -0.899079  -1.085509
   18  H  2  S   -0.348526  -0.291851  -0.000000  -0.027074  -0.089671
   19  H  2  X   -0.000000   0.000000  -0.131093   0.000000   0.000000
   20  H  2  Y   -0.341035  -0.532925  -0.000000   0.153052  -0.194745
   21  H  2  Z    0.406971   0.176418  -0.000000  -0.544282  -0.231483
   22  H  2  X   -0.000000   0.000000  -0.490807   0.000000   0.000000
   23  H  2  Y    1.214441   1.348802  -0.000000  -0.032000   1.063236
   24  H  2  Z   -1.145051  -0.934014  -0.000000  -0.298120   0.120988
   25  H  2 XX    0.478756   0.179308  -0.000000   0.095118   0.244633
   26  H  2 YY   -0.122383  -0.139766  -0.000000   0.507029  -0.779977
   27  H  2 ZZ   -0.356374  -0.039542  -0.000000  -0.602147   0.535344
   28  H  2 XY   -0.000000   0.000000   0.589682   0.000000   0.000000
   29  H  2 XZ   -0.000000   0.000000  -0.736910   0.000000   0.000000
   30  H  2 YZ    0.449258   0.473830  -0.000000  -0.123803  -0.314496
   31  O  3  S   -0.000000   0.320622  -0.000000  -0.203739   0.000000
   32  O  3  S   -0.000000   0.711195  -0.000000  -0.219491   0.000000
   33  O  3  S   -0.000000   0.309714  -0.000000   0.064039   0.000000
   34  O  3  S   -0.000000   3.849228  -0.000000   1.762533   0.000000
   35  O  3  X   -0.000000   0.000000  -0.000000   0.000000   0.000000
   36  O  3  Y   -0.608013   0.000000  -0.000000   0.000000  -0.485743
   37  O  3  Z   -0.000000   0.745199  -0.000000   0.580693   0.000000
   38  O  3  X   -0.000000   0.000000  -0.000000   0.000000   0.000000
   39  O  3  Y    1.769119   0.000000  -0.000000   0.000000   0.691425
   40  O  3  Z   -0.000000  -1.483444  -0.000000  -0.571908   0.000000
   41  O  3  X   -0.000000   0.000000  -0.000000   0.000000   0.000000
   42  O  3  Y    0.753527   0.000000  -0.000000   0.000000   0.074402
   43  O  3  Z   -0.000000  -0.708427  -0.000000  -0.130668   0.000000
   44  O  3 XX   -0.000000  -0.131135  -0.000000   0.029882   0.000000
   45  O  3 YY   -0.000000   0.100153  -0.000000  -0.116320   0.000000
   46  O  3 ZZ   -0.000000   0.030982  -0.000000   0.086438   0.000000
   47  O  3 XY   -0.000000   0.000000  -0.114457   0.000000   0.000000
   48  O  3 XZ   -0.000000   0.000000  -0.000000   0.000000   0.000000
   49  O  3 YZ   -0.173328   0.000000  -0.000000   0.000000   0.017386
   50  O  3 XX   -0.000000  -0.092597  -0.000000  -0.564137   0.000000
   51  O  3 YY   -0.000000   0.236613  -0.000000   1.306498   0.000000
   52  O  3 ZZ   -0.000000  -0.144016  -0.000000  -0.742361   0.000000
   53  O  3 XY   -0.000000   0.000000   1.138128   0.000000   0.000000
   54  O  3 XZ   -0.000000   0.000000  -0.000000   0.000000   0.000000
   55  O  3 YZ    0.196066   0.000000  -0.000000   0.000000  -0.454175
   56  O  3 XXX  -0.000000   0.000000  -0.000000   0.000000   0.000000
   57  O  3 YYY   0.030001   0.000000  -0.000000   0.000000  -0.119714
   58  O  3 ZZZ  -0.000000  -0.035461  -0.000000  -0.053625   0.000000
   59  O  3 XXY  -0.056675   0.000000  -0.000000   0.000000   0.084131
   60  O  3 XXZ  -0.000000   0.086973  -0.000000  -0.071920   0.000000
   61  O  3 YYX  -0.000000   0.000000  -0.000000   0.000000   0.000000
   62  O  3 YYZ  -0.000000  -0.039397  -0.000000   0.143866   0.000000
   63  O  3 ZZX  -0.000000   0.000000  -0.000000   0.000000   0.000000
   64  O  3 ZZY   0.016424   0.000000  -0.000000   0.000000   0.076482
   65  O  3 XYZ  -0.000000   0.000000   0.054444   0.000000   0.000000

                     41         42         43         44         45
                    4.7019     4.9098     5.2108     5.2683     5.5448
                     A          A          A          A          A   
    1  H  1  S    0.000000   0.115667  -0.116368  -0.183058   0.349656
    2  H  1  S    0.000000   3.100187  -2.234737  -2.067519   2.075008
    3  H  1  S    0.000000   0.217322  -0.099256  -0.096697   0.014770
    4  H  1  X   -0.214222  -0.000000  -0.000000   0.000000  -0.000000
    5  H  1  Y    0.000000   0.520002  -0.306243  -0.648255   0.469009
    6  H  1  Z    0.000000   0.381940  -0.520369  -0.102861   0.339067
    7  H  1  X   -0.301289  -0.000000  -0.000000   0.000000  -0.000000
    8  H  1  Y    0.000000   1.470524  -0.824537  -0.845356   0.693140
    9  H  1  Z    0.000000   0.947591  -0.747921  -0.224140   0.726543
   10  H  1 XX    0.000000  -0.667064   0.504685   0.028982   0.069257
   11  H  1 YY    0.000000   0.671128  -0.221692  -0.564367  -0.131531
   12  H  1 ZZ    0.000000  -0.004064  -0.282993   0.535385   0.062275
   13  H  1 XY   -0.610368  -0.000000  -0.000000   0.000000  -0.000000
   14  H  1 XZ   -0.327628  -0.000000  -0.000000   0.000000  -0.000000
   15  H  1 YZ    0.000000   0.784220  -0.771284  -0.244281   0.406387
   16  H  2  S    0.000000  -0.115667  -0.116368  -0.183058  -0.349656
   17  H  2  S    0.000000  -3.100187  -2.234737  -2.067519  -2.075008
   18  H  2  S    0.000000  -0.217322  -0.099256  -0.096697  -0.014770
   19  H  2  X   -0.214222  -0.000000  -0.000000   0.000000  -0.000000
   20  H  2  Y    0.000000   0.520002   0.306243   0.648255   0.469009
   21  H  2  Z    0.000000  -0.381940  -0.520369  -0.102861  -0.339067
   22  H  2  X   -0.301289  -0.000000  -0.000000   0.000000  -0.000000
   23  H  2  Y    0.000000   1.470524   0.824537   0.845356   0.693140
   24  H  2  Z    0.000000  -0.947591  -0.747921  -0.224140  -0.726543
   25  H  2 XX    0.000000   0.667064   0.504685   0.028982  -0.069257
   26  H  2 YY    0.000000  -0.671128  -0.221692  -0.564367   0.131531
   27  H  2 ZZ    0.000000   0.004064  -0.282993   0.535385  -0.062275
   28  H  2 XY    0.610368  -0.000000  -0.000000   0.000000  -0.000000
   29  H  2 XZ   -0.327628  -0.000000  -0.000000   0.000000  -0.000000
   30  H  2 YZ    0.000000   0.784220   0.771284   0.244281   0.406387
   31  O  3  S    0.000000  -0.000000   0.328651  -0.021401  -0.000000
   32  O  3  S    0.000000  -0.000000   1.208481   0.422831  -0.000000
   33  O  3  S    0.000000  -0.000000   0.783798   0.542817  -0.000000
   34  O  3  S    0.000000  -0.000000   3.182060   3.380436  -0.000000
   35  O  3  X   -0.738482  -0.000000  -0.000000   0.000000  -0.000000
   36  O  3  Y    0.000000   0.317436  -0.000000   0.000000  -0.739739
   37  O  3  Z    0.000000  -0.000000  -0.402229   0.616275  -0.000000
   38  O  3  X    1.490822  -0.000000  -0.000000   0.000000  -0.000000
   39  O  3  Y    0.000000   2.138066  -0.000000   0.000000   2.533467
   40  O  3  Z    0.000000  -0.000000  -0.788292  -2.205342  -0.000000
   41  O  3  X   -0.103974  -0.000000  -0.000000   0.000000  -0.000000
   42  O  3  Y    0.000000   1.466695  -0.000000   0.000000   0.943234
   43  O  3  Z    0.000000  -0.000000  -0.815089  -0.925340  -0.000000
   44  O  3 XX    0.000000  -0.000000   0.130336   0.105273  -0.000000
   45  O  3 YY    0.000000  -0.000000  -0.174266  -0.018259  -0.000000
   46  O  3 ZZ    0.000000  -0.000000   0.043930  -0.087014  -0.000000
   47  O  3 XY    0.000000  -0.000000  -0.000000   0.000000  -0.000000
   48  O  3 XZ    0.088635  -0.000000  -0.000000   0.000000  -0.000000
   49  O  3 YZ    0.000000   0.221455  -0.000000   0.000000   0.167338
   50  O  3 XX    0.000000  -0.000000  -0.598925  -0.565786  -0.000000
   51  O  3 YY    0.000000  -0.000000   0.951877  -0.298325  -0.000000
   52  O  3 ZZ    0.000000  -0.000000  -0.352952   0.864111  -0.000000
   53  O  3 XY    0.000000  -0.000000  -0.000000   0.000000  -0.000000
   54  O  3 XZ   -0.673644  -0.000000  -0.000000   0.000000  -0.000000
   55  O  3 YZ    0.000000  -1.190877  -0.000000   0.000000  -1.147551
   56  O  3 XXX   0.281612  -0.000000  -0.000000   0.000000  -0.000000
   57  O  3 YYY   0.000000   0.072347  -0.000000   0.000000  -0.307743
   58  O  3 ZZZ   0.000000  -0.000000  -0.062406   0.380036  -0.000000
   59  O  3 XXY   0.000000  -0.285344  -0.000000   0.000000   0.633849
   60  O  3 XXZ   0.000000  -0.000000   0.427853  -0.366807  -0.000000
   61  O  3 YYX  -0.179260  -0.000000  -0.000000   0.000000  -0.000000
   62  O  3 YYZ   0.000000  -0.000000  -0.344126  -0.143065  -0.000000
   63  O  3 ZZX  -0.198562  -0.000000  -0.000000   0.000000  -0.000000
   64  O  3 ZZY   0.000000   0.188280  -0.000000   0.000000  -0.220968
   65  O  3 XYZ   0.000000  -0.000000  -0.000000   0.000000  -0.000000

                     46         47         48         49         50
                    6.0783     6.6126     6.9588     6.9681     7.0338
                     A          A          A          A          A   
    1  H  1  S    0.000000  -0.411013  -0.000000  -0.000000   0.000000
    2  H  1  S    0.000000   0.583002  -0.000000  -0.000000   0.000000
    3  H  1  S    0.000000   0.019615  -0.000000  -0.000000   0.000000
    4  H  1  X   -0.067898  -0.000000   0.025266   0.029035  -0.510937
    5  H  1  Y    0.000000  -0.575189  -0.000000  -0.000000   0.000000
    6  H  1  Z    0.000000   0.181820  -0.000000  -0.000000   0.000000
    7  H  1  X   -0.014162  -0.000000  -0.229443  -0.168725  -0.375836
    8  H  1  Y    0.000000   0.250753  -0.000000  -0.000000   0.000000
    9  H  1  Z    0.000000   0.542903  -0.000000  -0.000000   0.000000
   10  H  1 XX    0.000000   0.037919  -0.000000  -0.000000   0.000000
   11  H  1 YY    0.000000  -0.467444  -0.000000  -0.000000   0.000000
   12  H  1 ZZ    0.000000   0.429525  -0.000000  -0.000000   0.000000
   13  H  1 XY   -0.280851  -0.000000  -0.053176   0.100074  -0.591163
   14  H  1 XZ    0.215647  -0.000000   0.100499   0.013371  -0.441472
   15  H  1 YZ    0.000000   0.402545  -0.000000  -0.000000   0.000000
   16  H  2  S    0.000000  -0.411013  -0.000000  -0.000000   0.000000
   17  H  2  S    0.000000   0.583002  -0.000000  -0.000000   0.000000
   18  H  2  S    0.000000   0.019615  -0.000000  -0.000000   0.000000
   19  H  2  X   -0.067898  -0.000000   0.025266  -0.029035  -0.510937
   20  H  2  Y    0.000000   0.575189  -0.000000  -0.000000   0.000000
   21  H  2  Z    0.000000   0.181820  -0.000000  -0.000000   0.000000
   22  H  2  X   -0.014162  -0.000000  -0.229443   0.168725  -0.375836
   23  H  2  Y    0.000000  -0.250753  -0.000000  -0.000000   0.000000
   24  H  2  Z    0.000000   0.542903  -0.000000  -0.000000   0.000000
   25  H  2 XX    0.000000   0.037919  -0.000000  -0.000000   0.000000
   26  H  2 YY    0.000000  -0.467444  -0.000000  -0.000000   0.000000
   27  H  2 ZZ    0.000000   0.429525  -0.000000  -0.000000   0.000000
   28  H  2 XY    0.280851  -0.000000   0.053176   0.100074   0.591163
   29  H  2 XZ    0.215647  -0.000000   0.100499  -0.013371  -0.441472
   30  H  2 YZ    0.000000  -0.402545  -0.000000  -0.000000   0.000000
   31  O  3  S    0.000000  -0.422644  -0.000000  -0.000000   0.000000
   32  O  3  S    0.000000  -0.627800  -0.000000  -0.000000   0.000000
   33  O  3  S    0.000000   0.150444  -0.000000  -0.000000   0.000000
   34  O  3  S    0.000000  -0.491004  -0.000000  -0.000000   0.000000
   35  O  3  X   -0.058858  -0.000000   0.005252  -0.000000  -0.374181
   36  O  3  Y    0.000000  -0.000000  -0.000000  -0.000000   0.000000
   37  O  3  Z    0.000000   0.437165  -0.000000  -0.000000   0.000000
   38  O  3  X    0.158030  -0.000000   0.001155  -0.000000   1.151581
   39  O  3  Y    0.000000  -0.000000  -0.000000  -0.000000   0.000000
   40  O  3  Z    0.000000  -0.932694  -0.000000  -0.000000   0.000000
   41  O  3  X   -0.011509  -0.000000   0.245327  -0.000000   0.234113
   42  O  3  Y    0.000000  -0.000000  -0.000000  -0.000000   0.000000
   43  O  3  Z    0.000000   0.059418  -0.000000  -0.000000   0.000000
   44  O  3 XX    0.000000  -0.271986  -0.000000  -0.000000   0.000000
   45  O  3 YY    0.000000   0.079322  -0.000000  -0.000000   0.000000
   46  O  3 ZZ    0.000000   0.192664  -0.000000  -0.000000   0.000000
   47  O  3 XY    0.000000  -0.000000  -0.000000   1.190465   0.000000
   48  O  3 XZ   -0.155716  -0.000000   1.178540  -0.000000   0.024546
   49  O  3 YZ    0.000000  -0.000000  -0.000000  -0.000000   0.000000
   50  O  3 XX    0.000000  -0.130057  -0.000000  -0.000000   0.000000
   51  O  3 YY    0.000000  -0.774173  -0.000000  -0.000000   0.000000
   52  O  3 ZZ    0.000000   0.904230  -0.000000  -0.000000   0.000000
   53  O  3 XY    0.000000  -0.000000  -0.000000  -0.680708   0.000000
   54  O  3 XZ   -0.145226  -0.000000  -0.758132  -0.000000  -0.813101
   55  O  3 YZ    0.000000  -0.000000  -0.000000  -0.000000   0.000000
   56  O  3 XXX  -0.288132  -0.000000  -0.100101  -0.000000  -1.138198
   57  O  3 YYY   0.000000  -0.000000  -0.000000  -0.000000   0.000000
   58  O  3 ZZZ   0.000000  -0.649886  -0.000000  -0.000000   0.000000
   59  O  3 XXY   0.000000  -0.000000  -0.000000  -0.000000   0.000000
   60  O  3 XXZ   0.000000   0.999484  -0.000000  -0.000000   0.000000
   61  O  3 YYX  -0.668980  -0.000000  -0.064859  -0.000000   1.105532
   62  O  3 YYZ   0.000000  -0.127570  -0.000000  -0.000000   0.000000
   63  O  3 ZZX   1.055550  -0.000000   0.199159  -0.000000   0.421521
   64  O  3 ZZY   0.000000  -0.000000  -0.000000  -0.000000   0.000000
   65  O  3 XYZ   0.000000  -0.000000  -0.000000   0.006656   0.000000

                     51         52         53         54         55
                    7.0574     7.1544     7.1710     7.2751     7.4824
                     A          A          A          A          A   
    1  H  1  S    0.301866   0.665476   0.363660   0.000000  -0.508260
    2  H  1  S    0.039463   0.752454  -1.100910   0.000000  -0.158974
    3  H  1  S    0.029288   0.004742   0.016701   0.000000  -0.088092
    4  H  1  X   -0.000000  -0.000000  -0.000000  -0.559524   0.000000
    5  H  1  Y    0.152147   0.220676  -0.004495   0.000000   0.064726
    6  H  1  Z    0.226482   0.557503   0.449305   0.000000  -0.204616
    7  H  1  X   -0.000000  -0.000000  -0.000000  -0.341614   0.000000
    8  H  1  Y   -0.038028  -0.028151  -0.617733   0.000000   0.171148
    9  H  1  Z   -0.279807   0.314699  -0.103997   0.000000  -0.023926
   10  H  1 XX    0.025130  -0.032339   0.123497   0.000000  -0.154561
   11  H  1 YY   -0.139899  -0.458940  -0.385016   0.000000   0.299680
   12  H  1 ZZ    0.114768   0.491279   0.261519   0.000000  -0.145119
   13  H  1 XY   -0.000000  -0.000000  -0.000000  -0.572291   0.000000
   14  H  1 XZ   -0.000000  -0.000000  -0.000000  -0.448158   0.000000
   15  H  1 YZ   -0.035030   0.069151   0.128132   0.000000   0.266071
   16  H  2  S    0.301866  -0.665476   0.363660   0.000000  -0.508260
   17  H  2  S    0.039463  -0.752454  -1.100910   0.000000  -0.158974
   18  H  2  S    0.029288  -0.004742   0.016701   0.000000  -0.088092
   19  H  2  X   -0.000000  -0.000000  -0.000000   0.559524   0.000000
   20  H  2  Y   -0.152147   0.220676   0.004495   0.000000  -0.064726
   21  H  2  Z    0.226482  -0.557503   0.449305   0.000000  -0.204616
   22  H  2  X   -0.000000  -0.000000  -0.000000   0.341614   0.000000
   23  H  2  Y    0.038028  -0.028151   0.617733   0.000000  -0.171148
   24  H  2  Z   -0.279807  -0.314699  -0.103997   0.000000  -0.023926
   25  H  2 XX    0.025130   0.032339   0.123497   0.000000  -0.154561
   26  H  2 YY   -0.139899   0.458940  -0.385016   0.000000   0.299680
   27  H  2 ZZ    0.114768  -0.491279   0.261519   0.000000  -0.145119
   28  H  2 XY   -0.000000  -0.000000  -0.000000  -0.572291   0.000000
   29  H  2 XZ   -0.000000  -0.000000  -0.000000   0.448158   0.000000
   30  H  2 YZ    0.035030   0.069151  -0.128132   0.000000  -0.266071
   31  O  3  S    0.408609  -0.000000   0.611227   0.000000  -0.254109
   32  O  3  S    0.560133  -0.000000   0.780744   0.000000  -0.586282
   33  O  3  S   -0.255757  -0.000000  -0.541128   0.000000  -0.273124
   34  O  3  S   -0.508153  -0.000000   1.228982   0.000000   1.104177
   35  O  3  X   -0.000000  -0.000000  -0.000000   0.000000   0.000000
   36  O  3  Y   -0.000000  -0.659387  -0.000000   0.000000   0.000000
   37  O  3  Z   -0.073327  -0.000000   0.170242   0.000000   0.235531
   38  O  3  X   -0.000000  -0.000000  -0.000000   0.000000   0.000000
   39  O  3  Y   -0.000000   1.818335  -0.000000   0.000000   0.000000
   40  O  3  Z    0.093768  -0.000000  -0.599698   0.000000  -0.009927
   41  O  3  X   -0.000000  -0.000000  -0.000000   0.000000   0.000000
   42  O  3  Y   -0.000000   0.616647  -0.000000   0.000000   0.000000
   43  O  3  Z    0.323234  -0.000000  -0.708681   0.000000  -0.309431
   44  O  3 XX   -0.242752  -0.000000   0.780336   0.000000   0.837639
   45  O  3 YY   -0.789822  -0.000000  -0.185770   0.000000  -0.897914
   46  O  3 ZZ    1.032573  -0.000000  -0.594566   0.000000   0.060275
   47  O  3 XY   -0.000000  -0.000000  -0.000000   0.074556   0.000000
   48  O  3 XZ   -0.000000  -0.000000  -0.000000   0.000000   0.000000
   49  O  3 YZ   -0.000000   0.285288  -0.000000   0.000000   0.000000
   50  O  3 XX    0.368578  -0.000000  -0.432234   0.000000  -0.794209
   51  O  3 YY    0.207194  -0.000000  -0.624435   0.000000   1.128201
   52  O  3 ZZ   -0.575772  -0.000000   1.056669   0.000000  -0.333992
   53  O  3 XY   -0.000000  -0.000000  -0.000000  -1.098231   0.000000
   54  O  3 XZ   -0.000000  -0.000000  -0.000000   0.000000   0.000000
   55  O  3 YZ   -0.000000  -0.864591  -0.000000   0.000000   0.000000
   56  O  3 XXX  -0.000000  -0.000000  -0.000000   0.000000   0.000000
   57  O  3 YYY  -0.000000   1.097447  -0.000000   0.000000   0.000000
   58  O  3 ZZZ  -0.217604  -0.000000  -0.765838   0.000000   0.445208
   59  O  3 XXY  -0.000000  -0.897180  -0.000000   0.000000   0.000000
   60  O  3 XXZ  -0.242147  -0.000000   0.145118   0.000000   0.216694
   61  O  3 YYX  -0.000000  -0.000000  -0.000000   0.000000   0.000000
   62  O  3 YYZ   0.534092  -0.000000   0.882361   0.000000  -0.814003
   63  O  3 ZZX  -0.000000  -0.000000  -0.000000   0.000000   0.000000
   64  O  3 ZZY  -0.000000  -0.575199  -0.000000   0.000000   0.000000
   65  O  3 XYZ  -0.000000  -0.000000  -0.000000   1.319423   0.000000

                     56         57         58
                    7.8343     8.3515    13.1658
                     A          A          A   
    1  H  1  S   -0.900156   0.588966  -0.643285
    2  H  1  S   -0.650670   2.183869  -3.868779
    3  H  1  S   -0.061117  -0.079814   0.079115
    4  H  1  X   -0.000000  -0.000000  -0.000000
    5  H  1  Y   -0.612486   0.916182  -0.869707
    6  H  1  Z    0.010080   0.601331  -0.790967
    7  H  1  X   -0.000000  -0.000000  -0.000000
    8  H  1  Y   -0.114353   0.909718  -1.489738
    9  H  1  Z    0.004699   0.607665  -1.201362
   10  H  1 XX   -0.169112  -0.388583   0.423089
   11  H  1 YY   -0.227032   0.438488  -0.297529
   12  H  1 ZZ    0.396144  -0.049905  -0.125560
   13  H  1 XY   -0.000000  -0.000000  -0.000000
   14  H  1 XZ   -0.000000  -0.000000  -0.000000
   15  H  1 YZ    0.192793   0.528323  -0.793815
   16  H  2  S    0.900156  -0.588966  -0.643285
   17  H  2  S    0.650670  -2.183869  -3.868779
   18  H  2  S    0.061117   0.079814   0.079115
   19  H  2  X   -0.000000  -0.000000  -0.000000
   20  H  2  Y   -0.612486   0.916182   0.869707
   21  H  2  Z   -0.010080  -0.601331  -0.790967
   22  H  2  X   -0.000000  -0.000000  -0.000000
   23  H  2  Y   -0.114353   0.909718   1.489738
   24  H  2  Z   -0.004699  -0.607665  -1.201362
   25  H  2 XX    0.169112   0.388583   0.423089
   26  H  2 YY    0.227032  -0.438488  -0.297529
   27  H  2 ZZ   -0.396144   0.049905  -0.125560
   28  H  2 XY   -0.000000  -0.000000  -0.000000
   29  H  2 XZ   -0.000000  -0.000000  -0.000000
   30  H  2 YZ    0.192793   0.528323   0.793815
   31  O  3  S   -0.000000  -0.000000   3.894008
   32  O  3  S   -0.000000  -0.000000   6.122030
   33  O  3  S   -0.000000  -0.000000  -2.618797
   34  O  3  S   -0.000000  -0.000000   4.039963
   35  O  3  X   -0.000000  -0.000000  -0.000000
   36  O  3  Y    0.461868  -0.352371  -0.000000
   37  O  3  Z   -0.000000  -0.000000   0.335902
   38  O  3  X   -0.000000  -0.000000  -0.000000
   39  O  3  Y   -0.936724   2.799862  -0.000000
   40  O  3  Z   -0.000000  -0.000000  -2.756940
   41  O  3  X   -0.000000  -0.000000  -0.000000
   42  O  3  Y   -0.661680   0.620134  -0.000000
   43  O  3  Z   -0.000000  -0.000000  -1.225788
   44  O  3 XX   -0.000000  -0.000000  -0.274245
   45  O  3 YY   -0.000000  -0.000000   0.229284
   46  O  3 ZZ   -0.000000  -0.000000   0.044961
   47  O  3 XY   -0.000000  -0.000000  -0.000000
   48  O  3 XZ   -0.000000  -0.000000  -0.000000
   49  O  3 YZ   -0.603255  -1.123046  -0.000000
   50  O  3 XX   -0.000000  -0.000000  -1.021167
   51  O  3 YY   -0.000000  -0.000000   1.151151
   52  O  3 ZZ   -0.000000  -0.000000  -0.129984
   53  O  3 XY   -0.000000  -0.000000  -0.000000
   54  O  3 XZ   -0.000000  -0.000000  -0.000000
   55  O  3 YZ    1.676785  -0.847429  -0.000000
   56  O  3 XXX  -0.000000  -0.000000  -0.000000
   57  O  3 YYY   0.652492  -0.069189  -0.000000
   58  O  3 ZZZ  -0.000000  -0.000000   0.425354
   59  O  3 XXY   0.453449  -0.496921  -0.000000
   60  O  3 XXZ  -0.000000  -0.000000   0.324942
   61  O  3 YYX  -0.000000  -0.000000  -0.000000
   62  O  3 YYZ  -0.000000  -0.000000  -0.895615
   63  O  3 ZZX  -0.000000  -0.000000  -0.000000
   64  O  3 ZZY  -1.328859   0.589748  -0.000000
   65  O  3 XYZ  -0.000000  -0.000000  -0.000000
 ...... END OF RHF CALCULATION ......
 CPU     0: STEP CPU TIME=     0.12 TOTAL CPU TIME=        0.2 (    0.0 MIN)
 TOTAL WALL CLOCK TIME=        0.2 SECONDS, CPU UTILIZATION IS 100.00%

     ----------------------------------------------------------------
     PROPERTY VALUES FOR THE RHF   SELF-CONSISTENT FIELD WAVEFUNCTION
     ----------------------------------------------------------------

          -----------------
          ENERGY COMPONENTS
          -----------------

         WAVEFUNCTION NORMALIZATION =       1.0000000000

                ONE ELECTRON ENERGY =    -123.4039120280
                TWO ELECTRON ENERGY =      37.9924186767
           NUCLEAR REPULSION ENERGY =       9.3537236493
                                      ------------------
                       TOTAL ENERGY =     -76.0577697019

 ELECTRON-ELECTRON POTENTIAL ENERGY =      37.9924186767
  NUCLEUS-ELECTRON POTENTIAL ENERGY =    -199.4748173848
   NUCLEUS-NUCLEUS POTENTIAL ENERGY =       9.3537236493
                                      ------------------
             TOTAL POTENTIAL ENERGY =    -152.1286750587
               TOTAL KINETIC ENERGY =      76.0709053568
                 VIRIAL RATIO (V/T) =       1.9998273235

          ---------------------------------------
          MULLIKEN AND LOWDIN POPULATION ANALYSES
          ---------------------------------------

     ATOMIC MULLIKEN POPULATION IN EACH MOLECULAR ORBITAL

                      1          2          3          4          5

                  2.000000   2.000000   2.000000   2.000000   2.000000

    1             0.000249   0.190995   0.396697   0.135713   0.038661
    2             0.000249   0.190995   0.396697   0.135713   0.038661
    3             1.999502   1.618009   1.206606   1.728575   1.922679

               ----- POPULATIONS IN EACH AO -----
                             MULLIKEN      LOWDIN
              1  H  1  S      0.26124     0.20822
              2  H  1  S      0.37338     0.21188
              3  H  1  S      0.03694     0.08381
              4  H  1  X      0.00465     0.01026
              5  H  1  Y      0.00962     0.01820
              6  H  1  Z      0.00720     0.01527
              7  H  1  X      0.03088     0.09376
              8  H  1  Y      0.00921     0.06347
              9  H  1  Z      0.02181     0.08698
             10  H  1 XX      0.00133     0.06405
             11  H  1 YY      0.00095     0.10925
             12  H  1 ZZ      0.00210     0.09309
             13  H  1 XY      0.00103     0.01656
             14  H  1 XZ      0.00198     0.00872
             15  H  1 YZ      0.00000     0.01885
             16  H  2  S      0.26124     0.20822
             17  H  2  S      0.37338     0.21188
             18  H  2  S      0.03694     0.08381
             19  H  2  X      0.00465     0.01026
             20  H  2  Y      0.00962     0.01820
             21  H  2  Z      0.00720     0.01527
             22  H  2  X      0.03088     0.09376
             23  H  2  Y      0.00921     0.06347
             24  H  2  Z      0.02181     0.08698
             25  H  2 XX      0.00133     0.06405
             26  H  2 YY      0.00095     0.10925
             27  H  2 ZZ      0.00210     0.09309
             28  H  2 XY      0.00103     0.01656
             29  H  2 XZ      0.00198     0.00872
             30  H  2 YZ      0.00000     0.01885
             31  O  3  S      1.95083     1.55988
             32  O  3  S      0.99424     0.51853
             33  O  3  S      0.22904     0.34591
             34  O  3  S      0.59504     0.24017
             35  O  3  X      0.50668     0.43448
             36  O  3  Y      0.34653     0.27689
             37  O  3  Z      0.41824     0.35044
             38  O  3  X      0.82954     0.44368
             39  O  3  Y      0.60259     0.31317
             40  O  3  Z      0.71339     0.38689
             41  O  3  X      0.58444     0.42690
[...]
     VIB  2

                       ATOM             X              Y              Z

                 1  H                0.000000      -1.419574      -0.041610
                 2  H                0.000000       1.419574      -0.041610
                 3  O               -0.010000       0.000000       1.028084
 ...... END OF ONE-ELECTRON INTEGRALS ......
 CPU     0: STEP CPU TIME=     0.00 TOTAL CPU TIME=        5.7 (    0.1 MIN)
 TOTAL WALL CLOCK TIME=        5.8 SECONDS, CPU UTILIZATION IS  97.59%
 TOTAL NUMBER OF NONZERO TWO-ELECTRON INTEGRALS =             2043108
        137 INTEGRAL RECORDS WERE STORED ON DISK FILE  8.
  ...... END OF TWO-ELECTRON INTEGRALS .....
 CPU     0: STEP CPU TIME=     0.05 TOTAL CPU TIME=        5.7 (    0.1 MIN)
 TOTAL WALL CLOCK TIME=        5.9 SECONDS, CPU UTILIZATION IS  97.28%

          --------------------------
                 RHF SCF CALCULATION
          --------------------------
     DENSITY MATRIX CONV=  1.00E-05

 ITER EX DEM     TOTAL ENERGY        E CHANGE  DENSITY CHANGE     ORB. GRAD
   1  0  0      -76.0577622774   -76.0577622774   0.001175176   0.000000000
          ---------------START SECOND ORDER SCF---------------
   2  1  0      -76.0577690580    -0.0000067807   0.000321068   0.000296180
   3  2  0      -76.0577695905    -0.0000005325   0.000250764   0.000119426
   4  3  0      -76.0577696971    -0.0000001066   0.000028221   0.000019894
   5  4  0      -76.0577697007    -0.0000000036   0.000013488   0.000007281
   6  5  0      -76.0577697013    -0.0000000006   0.000002283   0.000001927
   7  6  0      -76.0577697013    -0.0000000000   0.000000593   0.000000846

          -----------------
          DENSITY CONVERGED
          -----------------
     TIME TO FORM FOCK OPERATORS=       0.1 SECONDS (       0.0 SEC/ITER)
     TIME TO SOLVE SCF EQUATIONS=       0.0 SECONDS (       0.0 SEC/ITER)

 FINAL RHF ENERGY IS      -76.0577697013 AFTER   7 ITERATIONS
 ...... END OF RHF CALCULATION ......
 CPU     0: STEP CPU TIME=     0.12 TOTAL CPU TIME=        5.8 (    0.1 MIN)
 TOTAL WALL CLOCK TIME=        6.0 SECONDS, CPU UTILIZATION IS  97.17%
 ..... END OF 1-ELECTRON GRADIENT ......
 CPU     0: STEP CPU TIME=     0.00 TOTAL CPU TIME=        5.8 (    0.1 MIN)
 TOTAL WALL CLOCK TIME=        6.0 SECONDS, CPU UTILIZATION IS  97.17%
 ...... END OF 2-ELECTRON GRADIENT ......
 CPU     0: STEP CPU TIME=     0.23 TOTAL CPU TIME=        6.1 (    0.1 MIN)
 TOTAL WALL CLOCK TIME=        6.2 SECONDS, CPU UTILIZATION IS  97.28%

 UNITS ARE HARTREE/BOHR    E'X               E'Y               E'Z 
    1 H                0.000000120      -0.000011156      -0.000012337
    2 H                0.000000120       0.000011156      -0.000012337
    3 O               -0.000000239       0.000000000       0.000024674
  $VIB   
          IVIB=   2 IATOM=   3 ICOORD=   1 E=      -76.0577697013
  1.195984306E-07-1.115647539E-05-1.233690493E-05 1.195984295E-07 1.115647540E-05
 -1.233690495E-05-2.391968647E-07 0.000000000E+00 2.467380882E-05
  1.858154287E-02-7.449887640E-14-1.987765808E+00
1   ATOM  3
                                        -------------------
   COORD  2                             NUCLEAR COORDINATES
                                        -------------------
     VIB  2

                       ATOM             X              Y              Z

                 1  H                0.000000      -1.419574      -0.041610
                 2  H                0.000000       1.419574      -0.041610
                 3  O                0.000000      -0.010000       1.028084
 ...... END OF ONE-ELECTRON INTEGRALS ......
 CPU     0: STEP CPU TIME=     0.00 TOTAL CPU TIME=        6.1 (    0.1 MIN)
 TOTAL WALL CLOCK TIME=        6.2 SECONDS, CPU UTILIZATION IS  97.28%
 TOTAL NUMBER OF NONZERO TWO-ELECTRON INTEGRALS =             1086999
         74 INTEGRAL RECORDS WERE STORED ON DISK FILE  8.
  ...... END OF TWO-ELECTRON INTEGRALS .....
 CPU     0: STEP CPU TIME=     0.07 TOTAL CPU TIME=        6.1 (    0.1 MIN)
 TOTAL WALL CLOCK TIME=        6.3 SECONDS, CPU UTILIZATION IS  97.31%

          --------------------------
                 RHF SCF CALCULATION
          --------------------------
     DENSITY MATRIX CONV=  1.00E-05

 ITER EX DEM     TOTAL ENERGY        E CHANGE  DENSITY CHANGE     ORB. GRAD
   1  0  0      -76.0577148482   -76.0577148482   0.000754089   0.000000000
          ---------------START SECOND ORDER SCF---------------
   2  1  0      -76.0577284734    -0.0000136253   0.000145264   0.000312707
   3  2  0      -76.0577293434    -0.0000008699   0.000081076   0.000119275
   4  3  0      -76.0577294685    -0.0000001251   0.000010818   0.000011884
   5  4  0      -76.0577294701    -0.0000000016   0.000004193   0.000003573
   6  5  0      -76.0577294703    -0.0000000002   0.000001155   0.000000980

          -----------------
          DENSITY CONVERGED
          -----------------
     TIME TO FORM FOCK OPERATORS=       0.0 SECONDS (       0.0 SEC/ITER)
     TIME TO SOLVE SCF EQUATIONS=       0.0 SECONDS (       0.0 SEC/ITER)

 FINAL RHF ENERGY IS      -76.0577294703 AFTER   6 ITERATIONS
 ...... END OF RHF CALCULATION ......
 CPU     0: STEP CPU TIME=     0.04 TOTAL CPU TIME=        6.2 (    0.1 MIN)
 TOTAL WALL CLOCK TIME=        6.4 SECONDS, CPU UTILIZATION IS  97.17%
 ..... END OF 1-ELECTRON GRADIENT ......
 CPU     0: STEP CPU TIME=     0.00 TOTAL CPU TIME=        6.2 (    0.1 MIN)
 TOTAL WALL CLOCK TIME=        6.4 SECONDS, CPU UTILIZATION IS  97.02%
 ...... END OF 2-ELECTRON GRADIENT ......
 CPU     0: STEP CPU TIME=     0.14 TOTAL CPU TIME=        6.3 (    0.1 MIN)
 TOTAL WALL CLOCK TIME=        6.5 SECONDS, CPU UTILIZATION IS  97.23%

 UNITS ARE HARTREE/BOHR    E'X               E'Y               E'Z 
    1 H                0.000000000       0.004066945       0.003084532
    2 H                0.000000000       0.003979571      -0.002979812
    3 O                0.000000000      -0.008046516      -0.000104721
  $VIB   
          IVIB=   2 IATOM=   3 ICOORD=   2 E=      -76.0577294703
  0.000000000E+00 4.066944690E-03 3.084532456E-03 0.000000000E+00 3.979570965E-03
 -2.979811541E-03 0.000000000E+00-8.046515655E-03-1.047209163E-04
  0.000000000E+00 1.393255631E-02-1.987806402E+00
1   ATOM  3
                                        -------------------
   COORD  3                             NUCLEAR COORDINATES
                                        -------------------
     VIB  2

                       ATOM             X              Y              Z

                 1  H                0.000000      -1.419574      -0.041610
                 2  H                0.000000       1.419574      -0.041610
                 3  O                0.000000       0.000000       1.018084
 ...... END OF ONE-ELECTRON INTEGRALS ......
 CPU     0: STEP CPU TIME=     0.00 TOTAL CPU TIME=        6.3 (    0.1 MIN)
 TOTAL WALL CLOCK TIME=        6.5 SECONDS, CPU UTILIZATION IS  97.23%
 TOTAL NUMBER OF NONZERO TWO-ELECTRON INTEGRALS =             1083293
         73 INTEGRAL RECORDS WERE STORED ON DISK FILE  8.
  ...... END OF TWO-ELECTRON INTEGRALS .....
 CPU     0: STEP CPU TIME=     0.09 TOTAL CPU TIME=        6.4 (    0.1 MIN)
 TOTAL WALL CLOCK TIME=        6.6 SECONDS, CPU UTILIZATION IS  97.12%

          --------------------------
                 RHF SCF CALCULATION
          --------------------------
     DENSITY MATRIX CONV=  1.00E-05

 ITER EX DEM     TOTAL ENERGY        E CHANGE  DENSITY CHANGE     ORB. GRAD
   1  0  0      -76.0577317483   -76.0577317483   0.001177677   0.000000000
          ---------------START SECOND ORDER SCF---------------
   2  1  0      -76.0577421802    -0.0000104319   0.000451314   0.000397601
   3  2  0      -76.0577430406    -0.0000008605   0.000204462   0.000182052
   4  3  0      -76.0577432581    -0.0000002175   0.000037924   0.000031234
   5  4  0      -76.0577432659    -0.0000000078   0.000011420   0.000008167
   6  5  0      -76.0577432666    -0.0000000007   0.000003070   0.000002181
   7  6  0      -76.0577432666    -0.0000000000   0.000000973   0.000000380

          -----------------
          DENSITY CONVERGED
          -----------------
     TIME TO FORM FOCK OPERATORS=       0.1 SECONDS (       0.0 SEC/ITER)
     TIME TO SOLVE SCF EQUATIONS=       0.0 SECONDS (       0.0 SEC/ITER)

 FINAL RHF ENERGY IS      -76.0577432666 AFTER   7 ITERATIONS
 ...... END OF RHF CALCULATION ......
 CPU     0: STEP CPU TIME=     0.07 TOTAL CPU TIME=        6.5 (    0.1 MIN)
 TOTAL WALL CLOCK TIME=        6.7 SECONDS, CPU UTILIZATION IS  97.15%
 ..... END OF 1-ELECTRON GRADIENT ......
 CPU     0: STEP CPU TIME=     0.00 TOTAL CPU TIME=        6.5 (    0.1 MIN)
 TOTAL WALL CLOCK TIME=        6.7 SECONDS, CPU UTILIZATION IS  97.01%
 ...... END OF 2-ELECTRON GRADIENT ......
 CPU     0: STEP CPU TIME=     0.23 TOTAL CPU TIME=        6.7 (    0.1 MIN)
 TOTAL WALL CLOCK TIME=        6.9 SECONDS, CPU UTILIZATION IS  97.25%

 UNITS ARE HARTREE/BOHR    E'X               E'Y               E'Z 
    1 H                0.000000000       0.002405181       0.002646368
    2 H                0.000000000      -0.002405181       0.002646368
    3 O                0.000000000       0.000000000      -0.005292736
  $VIB   
          IVIB=   2 IATOM=   3 ICOORD=   3 E=      -76.0577432666
  0.000000000E+00 2.405180932E-03 2.646368223E-03 0.000000000E+00-2.405180932E-03
  2.646368223E-03 0.000000000E+00 0.000000000E+00-5.292736448E-03
  0.000000000E+00-2.652611508E-14-1.976932489E+00
 ...... END OF NUMERICAL HESSIAN CALCULATION ......
 CPU     0: STEP CPU TIME=     0.00 TOTAL CPU TIME=        6.7 (    0.1 MIN)
 TOTAL WALL CLOCK TIME=        6.9 SECONDS, CPU UTILIZATION IS  97.25%

          ---------------
          ENERGY GRADIENT
          ---------------

 UNITS ARE HARTREE/BOHR    E'X               E'Y               E'Z 
    1 H                0.000000000       0.000000046       0.000000038
    2 H                0.000000000      -0.000000046       0.000000038
    3 O                0.000000000       0.000000000      -0.000000076

          -------------------------------
          CARTESIAN FORCE CONSTANT MATRIX
          -------------------------------

                                   1                          2
                               H                          H         
                          X        Y        Z        X        Y        Z
  1   H            X 0.000010-0.000000 0.000000 0.000002 0.000000-0.000000
                   Y-0.000000 0.436049 0.270261 0.000000-0.033751-0.032937
                   Z 0.000000 0.270261 0.246098-0.000000 0.032937 0.017669
  2   H            X 0.000002 0.000000-0.000000 0.000010 0.000000 0.000000
                   Y 0.000000-0.033751 0.032937 0.000000 0.436049-0.270261
                   Z-0.000000-0.032937 0.017669 0.000000-0.270261 0.246098
  3   O            X-0.000012 0.000000-0.000000-0.000012-0.000000 0.000000
                   Y-0.000000-0.402312-0.303195-0.000000-0.402312 0.303195
                   Z 0.000000-0.237323-0.263762-0.000000 0.237323-0.263762

                                   3
                               O         
                          X        Y        Z
  3   O            X 0.000024 0.000000-0.000000
                   Y 0.000000 0.804652-0.000000
                   Z-0.000000-0.000000 0.527512

          ------------------------          ----------------
          DIPOLE DERIVATIVE TENSOR          (DEBYE/ANGSTROM)
          ------------------------          ----------------

        ATOM                 MU-X           MU-Y           MU-Z
     H          D/DX     1.755770183    0.000000000    0.000000000
                D/DY     0.000000000    1.316262416   -0.263446436
                D/DZ     0.000000000   -0.330951883    1.024022837
     H          D/DX     1.755770183    0.000000000   -0.000000000
                D/DY     0.000000000    1.316262416    0.263446436
                D/DZ     0.000000000    0.330951883    1.024022837
     O          D/DX    -3.511402446    0.000000000   -0.000000000
                D/DY     0.000000000   -2.632871374   -0.000000000
                D/DZ     0.000000000   -0.000000000   -2.048076041

          --------------------------------------------------------
          NORMAL COORDINATE ANALYSIS IN THE HARMONIC APPROXIMATION
          --------------------------------------------------------

          ATOMIC WEIGHTS (AMU)

    1     H                 1.00782
    2     H                 1.00782
    3     O                15.99491

 MODES 1 TO 6 ARE TAKEN AS ROTATIONS AND TRANSLATIONS.

 ANALYZING SYMMETRY OF NORMAL MODES...

     FREQUENCIES IN CM**-1, IR INTENSITIES IN DEBYE**2/AMU-ANGSTROM**2,
     REDUCED MASSES IN AMU.

                          1           2           3           4           5
       FREQUENCY:        37.18        0.13        0.02        2.50       14.42  
        SYMMETRY:         A           A           A           A           A   
    REDUCED MASS:      1.02405     5.85976     6.00376     6.78380     1.00782
    IR INTENSITY:      2.29813     0.00033     0.00000     0.01041     0.00000

  1   H            X  0.00000000  0.24021576 -0.00001191  0.00000000 -0.70435636
                   Y  0.39927141 -0.00000000  0.00000377  0.20931937  0.00000000
                   Z -0.57298459  0.00001168  0.23562576  0.03853221 -0.00000000
  2   H            X -0.00000000  0.24021576 -0.00001189  0.00000000  0.70435636
                   Y  0.39927141 -0.00000000 -0.00000364  0.20931937  0.00000000
                   Z  0.57298459  0.00001168  0.23562574 -0.03853236 -0.00000000
  3   O            X -0.00000000  0.23504932 -0.00001165  0.00000000  0.00000000
                   Y -0.03251386 -0.00000000  0.00000008  0.23835131  0.00000000
                   Z  0.00000000  0.00001168  0.23563408 -0.00000008 -0.00000000

 TRANS. SAYVETZ    X -0.00000001  4.24378362 -0.00021034  0.00000005  0.00000000
                   Y  0.28473514 -0.00000005  0.00000136  4.23432237  0.00000000
                   Z  0.00000001  0.00021035  4.24388501 -0.00000136 -0.00000006
               TOTAL  0.28473514  4.24378362  4.24388501  4.23432237  0.00000006

   ROT. SAYVETZ    X  2.46631172  0.00000001 -0.00000006 -0.16584605  0.00000001
                   Y  0.00000000 -0.00989283  0.00000048  0.00000000 -0.00000000
                   Z  0.00000000  0.00000000 -0.00000003  0.00000000 -2.01542039
               TOTAL  2.46631172  0.00989283  0.00000048  0.16584605  2.01542039

                          6           7           8           9
       FREQUENCY:        18.44     1752.68     4127.15     4227.06  
        SYMMETRY:         A           A           A           A   
    REDUCED MASS:      1.13109     1.08303     1.04483     1.08335
    IR INTENSITY:      6.88812     2.13567     0.34527     1.78040

  1   H            X  0.66212859  0.00000000 -0.00000000  0.00000000
                   Y  0.00000000 -0.40934344  0.57319790  0.54118908
                   Z -0.00000000  0.54017462  0.38575868  0.40782569
  2   H            X  0.66212859  0.00000000 -0.00000000  0.00000000
                   Y  0.00000000  0.40934344 -0.57319790  0.54118908
                   Z -0.00000000  0.54017462  0.38575868 -0.40782569
  3   O            X -0.08527430  0.00000000  0.00000000 -0.00000000
                   Y  0.00000000  0.00000000 -0.00000000 -0.06820110
                   Z -0.00000000 -0.06806862 -0.04861204  0.00000000

 TRANS. SAYVETZ    X -0.02933524  0.00000000 -0.00000000  0.00000000
                   Y  0.00000001  0.00000000 -0.00000000 -0.00002268
                   Z -0.00000003  0.00005148  0.00000934 -0.00000000
               TOTAL  0.02933524  0.00005148  0.00000934  0.00002268

   ROT. SAYVETZ    X  0.00000000 -0.00000000 -0.00000000 -0.00006160
                   Y -1.43114680 -0.00000000  0.00000000 -0.00000000
                   Z  0.00000000 -0.00000000 -0.00000000  0.00000000
               TOTAL  1.43114680  0.00000000  0.00000000  0.00006160

 REFERENCE ON SAYVETZ CONDITIONS - A. SAYVETZ, J.CHEM.PHYS., 7, 383-389(1939).

 NOTE - THE MODES J,K ARE ORTHONORMALIZED ACCORDING TO
 SUM ON I   M(I) * (X(I,J)*X(I,K) + Y(I,J)*Y(I,K) + Z(I,J)*Z(I,K)) = DELTA(J,K)

  MODE FREQ(CM**-1)  SYMMETRY  RED. MASS  IR INTENS.
     1      37.184    A        1.024050    2.298127
     2       0.127    A        5.859762    0.000330
     3       0.020    A        6.003756    0.000000
     4       2.500    A        6.783800    0.010407
     5      14.416    A        1.007825    0.000000
     6      18.436    A        1.131093    6.888124
     7    1752.679    A        1.083031    2.135667
     8    4127.146    A        1.044829    0.345272
     9    4227.055    A        1.083346    1.780402

     -------------------------------
     THERMOCHEMISTRY AT T=  298.15 K
     -------------------------------

 USING IDEAL GAS, RIGID ROTOR, HARMONIC NORMAL MODE APPROXIMATIONS.
 P=  1.01325E+05 PASCAL.
 ALL FREQUENCIES ARE SCALED BY   1.00000
 THE MOMENTS OF INERTIA ARE (IN AMU*BOHR**2)
      2.04828     4.06192     6.11020
 THE ROTATIONAL SYMMETRY NUMBER IS  1.0
 THE ROTATIONAL CONSTANTS ARE (IN GHZ)
    880.29424   443.90055   295.09488
 THE HARMONIC ZERO POINT ENERGY IS (SCALED BY   1.000)
        0.023025 HARTREE/MOLECULE     5053.439861 CM**-1/MOLECULE 
       14.448524 KCAL/MOL               60.452625 KJ/MOL

               Q               LN Q
 ELEC.     1.00000E+00       0.000000
 TRANS.    3.00431E+06      14.915558
 ROT.      8.07104E+01       4.390867
 VIB.      1.00021E+00       0.000212
 TOT.      2.42530E+08      19.306637

              E         H         G         CV        CP        S
           KJ/MOL    KJ/MOL    KJ/MOL   J/MOL-K   J/MOL-K   J/MOL-K
 ELEC.      0.000     0.000     0.000     0.000     0.000     0.000
 TRANS.     3.718     6.197   -36.975    12.472    20.786   144.800
 ROT.       3.718     3.718   -10.885    12.472    12.472    48.979
 VIB.      60.457    60.457    60.452     0.126     0.126     0.017
 TOTAL     67.894    70.373    12.593    25.070    33.384   193.796
 VIB. THERMAL CORRECTION E(T)-E(0) = H(T)-H(0) =     4.451 J/MOL

              E         H         G         CV        CP        S
         KCAL/MOL  KCAL/MOL  KCAL/MOL CAL/MOL-K CAL/MOL-K CAL/MOL-K
 ELEC.      0.000     0.000     0.000     0.000     0.000     0.000
 TRANS.     0.889     1.481    -8.837     2.981     4.968    34.608
 ROT.       0.889     0.889    -2.602     2.981     2.981    11.706
 VIB.      14.450    14.450    14.448     0.030     0.030     0.004
 TOTAL     16.227    16.820     3.010     5.992     7.979    46.318
 VIB. THERMAL CORRECTION E(T)-E(0) = H(T)-H(0) =     1.064 CAL/MOL
 ......END OF NORMAL COORDINATE ANALYSIS......
 CPU     0: STEP CPU TIME=     0.00 TOTAL CPU TIME=        6.7 (    0.1 MIN)
 TOTAL WALL CLOCK TIME=        6.9 SECONDS, CPU UTILIZATION IS  97.11%
               979702  WORDS OF DYNAMIC MEMORY USED
 EXECUTION OF GAMESS TERMINATED NORMALLY Sun Mar  6 23:02:53 2016
 DDI: 263640 bytes (0.3 MB / 0 MWords) used by master data server.

 ----------------------------------------
 CPU timing information for all processes
 ========================================
 0: 6.367 + 0.359 = 6.727
 1: 6.289 + 0.383 = 6.672
 ----------------------------------------
 ddikick.x: exited gracefully.
----- accounting info -----
Files used on the master node Clevo were:
-rw-r--r-- 1 sagar sagar   67945 Mar  6 23:02 /tmp/H2O_RHF_ccpVTZ_hessian.dat
-rw-r--r-- 1 sagar sagar     266 Mar  6 23:02 /tmp/H2O_RHF_ccpVTZ_hessian.F05
-rw-r--r-- 1 sagar sagar 6660592 Mar  6 23:02 /tmp/H2O_RHF_ccpVTZ_hessian.F08
-rw-r--r-- 1 sagar sagar 6480576 Mar  6 23:02 /tmp/H2O_RHF_ccpVTZ_hessian.F08.001
-rw-r--r-- 1 sagar sagar 1995920 Mar  6 23:02 /tmp/H2O_RHF_ccpVTZ_hessian.F10
-rw-r--r-- 1 sagar sagar    5085 Mar  6 23:02 /tmp/H2O_RHF_ccpVTZ_hessian.rst
Sun Mar  6 23:02:56 WET 2016
0.079u 0.048s 0:10.05 1.0%	0+0k 0+16io 0pf+0w
