----- GAMESS execution script 'rungms' -----
This job is running on host Clevo
under operating system Linux at Sun Mar 6 21:49:02 WET 2016
Available scratch disk space (Kbyte units) at beginning of the job is
Filesystem                                             1K-blocks     Used Available Use% Mounted on
/dev/disk/by-uuid/c2905ecd-da6a-4deb-abcc-9980c215dfc9  34319120 18791864  13760856  58% /
GAMESS temporary binary files will be written to /tmp
GAMESS supplementary output files will be written to .
Copying input file H2O_RHF_STO3G.inp to your run's scratch directory...

 Distributed Data Interface kickoff program.
 Initiating 2 compute processes on 1 nodes to run the following command:
 /home/sagar/gamess/gamess.01.x H2O_RHF_STO3G 

          ******************************************************
          *         GAMESS VERSION =  5 DEC 2014 (R1)          *
          *             FROM IOWA STATE UNIVERSITY             *
          * M.W.SCHMIDT, K.K.BALDRIDGE, J.A.BOATZ, S.T.ELBERT, *
          *   M.S.GORDON, J.H.JENSEN, S.KOSEKI, N.MATSUNAGA,   *
          *          K.A.NGUYEN, S.J.SU, T.L.WINDUS,           *
          *       TOGETHER WITH M.DUPUIS, J.A.MONTGOMERY       *
          *         J.COMPUT.CHEM.  14, 1347-1363(1993)        *
          **************** 64 BIT LINUX VERSION ****************

  SINCE 1993, STUDENTS AND POSTDOCS WORKING AT IOWA STATE UNIVERSITY
  AND ALSO IN THEIR VARIOUS JOBS AFTER LEAVING ISU HAVE MADE IMPORTANT
  CONTRIBUTIONS TO THE CODE:
     IVANA ADAMOVIC, CHRISTINE AIKENS, YURI ALEXEEV, POOJA ARORA,
     ANDREY ASADCHEV, ROB BELL, PRADIPTA BANDYOPADHYAY, JONATHAN BENTZ,
     BRETT BODE, KURT BRORSEN, CALEB CARLIN, GALINA CHABAN, WEI CHEN,
     CHEOL HO CHOI, PAUL DAY, ALBERT DEFUSCO, NUWAN DESILVA, TIM DUDLEY,
     DMITRI FEDOROV, GRAHAM FLETCHER, MARK FREITAG, KURT GLAESEMANN,
     DAN KEMP, GRANT MERRILL, NORIYUKI MINEZAWA, JONATHAN MULLIN,
     TAKESHI NAGATA, SEAN NEDD, HEATHER NETZLOFF, BOSILJKA NJEGIC, RYAN OLSON,
     MIKE PAK, SPENCER PRUITT, LUKE ROSKOP, JIM SHOEMAKER, LYUDMILA SLIPCHENKO,
     TONY SMITH, SAROM SOK, JIE SONG, TETSUYA TAKETSUGU, SIMON WEBB,
     PENG XU, SOOHAENG YOO, FEDERICO ZAHARIEV

  ADDITIONAL CODE HAS BEEN PROVIDED BY COLLABORATORS IN OTHER GROUPS:
     IOWA STATE UNIVERSITY:
          JOE IVANIC, AARON WEST, LAIMUTIS BYTAUTAS, KLAUS RUEDENBERG
     UNIVERSITY OF TOKYO: KIMIHIKO HIRAO, TAKAHITO NAKAJIMA,
          TAKAO TSUNEDA, MUNEAKI KAMIYA, SUSUMU YANAGISAWA,
          KIYOSHI YAGI, MAHITO CHIBA, SEIKEN TOKURA, NAOAKI KAWAKAMI
     UNIVERSITY OF AARHUS: FRANK JENSEN
     UNIVERSITY OF IOWA: VISVALDAS KAIRYS, HUI LI
     NATIONAL INST. OF STANDARDS AND TECHNOLOGY: WALT STEVENS, DAVID GARMER
     UNIVERSITY OF PISA: BENEDETTA MENNUCCI, JACOPO TOMASI
     UNIVERSITY OF MEMPHIS: HENRY KURTZ, PRAKASHAN KORAMBATH
     UNIVERSITY OF ALBERTA: TOBY ZENG, MARIUSZ KLOBUKOWSKI
     UNIVERSITY OF NEW ENGLAND: MARK SPACKMAN
     MIE UNIVERSITY: HIROAKI UMEDA
     NAT. INST. OF ADVANCED INDUSTRIAL SCIENCE AND TECHNOLOGY: KAZUO KITAURA
     MICHIGAN STATE UNIVERSITY:
          KAROL KOWALSKI, MARTA WLOCH, JEFFREY GOUR, JESSE LUTZ,
          WEI LI, PIOTR PIECUCH
     UNIVERSITY OF SILESIA: MONIKA MUSIAL, STANISLAW KUCHARSKI
     FACULTES UNIVERSITAIRES NOTRE-DAME DE LA PAIX:
          OLIVIER QUINET, BENOIT CHAMPAGNE
     UNIVERSITY OF CALIFORNIA - SANTA BARBARA: BERNARD KIRTMAN
     INSTITUTE FOR MOLECULAR SCIENCE:
          KAZUYA ISHIMURA, MICHIO KATOUDA, AND SHIGERU NAGASE
     UNIVERSITY OF NOTRE DAME: ANNA POMOGAEVA, DAN CHIPMAN
     KYUSHU UNIVERSITY:
          HARUYUKI NAKANO,
          FENG LONG GU, JACEK KORCHOWIEC, MARCIN MAKOWSKI, AND YURIKO AOKI,
          HIROTOSHI MORI AND EISAKU MIYOSHI
     PENNSYLVANIA STATE UNIVERSITY:
          TZVETELIN IORDANOV, CHET SWALINA, JONATHAN SKONE,
          SHARON HAMMES-SCHIFFER
     WASEDA UNIVERSITY:
          MASATO KOBAYASHI, TOMOKO AKAMA, TSUGUKI TOUMA,
          TAKESHI YOSHIKAWA, YASUHIRO IKABATA, HIROMI NAKAI
     NANJING UNIVERSITY: SHUHUA LI
     UNIVERSITY OF NEBRASKA:
          PEIFENG SU, DEJUN SI, NANDUN THELLAMUREGE, YALI WANG, HUI LI
     UNIVERSITY OF ZURICH: ROBERTO PEVERATI, KIM BALDRIDGE
     N. COPERNICUS UNIVERSITY AND JACKSON STATE UNIVERSITY:
          MARIA BARYSZ
     UNIVERSITY OF COPENHAGEN: CASPER STEINMANN
     TOKYO INSTITUTE OF TECHNOLOGY: HIROYA NAKATA
     NAGOYA UNIVERSITY: YOSHIO NISHIMOTO, STEPHAN IRLE


 PARALLEL VERSION RUNNING ON        2 PROCESSORS IN        1 NODES.

 EXECUTION OF GAMESS BEGUN Sun Mar  6 21:49:02 2016

            ECHO OF THE FIRST FEW INPUT CARDS -
 INPUT CARD> $CONTRL SCFTYP=RHF RUNTYP=OPTIMIZE $END                                        
 INPUT CARD> $STATPT OPTTOL=1E-12 NSTEP=1000 $END                                           
 INPUT CARD> $BASIS GBASIS=STO NGAUSS=3 $END                                                
 INPUT CARD> $DATA                                                                          
 INPUT CARD>H2O                                                                             
 INPUT CARD>C1                                                                              
 INPUT CARD> H 1 0.0 -1.0 0.0                                                               
 INPUT CARD> H 1 0.0 1.0 0.0                                                                
 INPUT CARD> O 8 0.0 0.0 0.5                                                                
 INPUT CARD> $END                                                                           
    1000000 WORDS OF MEMORY AVAILABLE

     BASIS OPTIONS
     -------------
     GBASIS=STO          IGAUSS=       3      POLAR=NONE    
     NDFUNC=       0     NFFUNC=       0     DIFFSP=       F
     NPFUNC=       0      DIFFS=       F     BASNAM=        


     RUN TITLE
     ---------
 H2O                                                                             

 THE POINT GROUP OF THE MOLECULE IS C1      
 THE ORDER OF THE PRINCIPAL AXIS IS     0

 ATOM      ATOMIC                      COORDINATES (BOHR)
           CHARGE         X                   Y                   Z
 H           1.0     0.0000000000       -1.8897259877        0.0000000000
 H           1.0     0.0000000000        1.8897259877        0.0000000000
 O           8.0     0.0000000000        0.0000000000        0.9448629939

          INTERNUCLEAR DISTANCES (ANGS.)
          ------------------------------

                1 H          2 H          3 O     

   1 H       0.0000000    2.0000000 *  1.1180340 *
   2 H       2.0000000 *  0.0000000    1.1180340 *
   3 O       1.1180340 *  1.1180340 *  0.0000000  

  * ... LESS THAN  3.000


     ATOMIC BASIS SET
     ----------------
 THE CONTRACTED PRIMITIVE FUNCTIONS HAVE BEEN UNNORMALIZED
 THE CONTRACTED BASIS FUNCTIONS ARE NOW NORMALIZED TO UNITY

  SHELL TYPE  PRIMITIVE        EXPONENT          CONTRACTION COEFFICIENT(S)

 H         

      1   S       1             3.4252509    0.154328967295
      1   S       2             0.6239137    0.535328142282
      1   S       3             0.1688554    0.444634542185

 H         

      2   S       4             3.4252509    0.154328967295
      2   S       5             0.6239137    0.535328142282
      2   S       6             0.1688554    0.444634542185

 O         

      3   S       7           130.7093214    0.154328967295
      3   S       8            23.8088661    0.535328142282
      3   S       9             6.4436083    0.444634542185

      4   L      10             5.0331513   -0.099967229187    0.155916274999
      4   L      11             1.1695961    0.399512826089    0.607683718598
      4   L      12             0.3803890    0.700115468880    0.391957393099

 TOTAL NUMBER OF BASIS SET SHELLS             =    4
 NUMBER OF CARTESIAN GAUSSIAN BASIS FUNCTIONS =    7
 NUMBER OF ELECTRONS                          =   10
 CHARGE OF MOLECULE                           =    0
 SPIN MULTIPLICITY                            =    1
 NUMBER OF OCCUPIED ORBITALS (ALPHA)          =    5
 NUMBER OF OCCUPIED ORBITALS (BETA )          =    5
 TOTAL NUMBER OF ATOMS                        =    3
 THE NUCLEAR REPULSION ENERGY IS        7.8375569539

     $CONTRL OPTIONS
     ---------------
 SCFTYP=RHF          RUNTYP=OPTIMIZE     EXETYP=RUN     
 MPLEVL=       0     CITYP =NONE         CCTYP =NONE         VBTYP =NONE    
 DFTTYP=NONE         TDDFT =NONE    
 MULT  =       1     ICHARG=       0     NZVAR =       0     COORD =UNIQUE  
 PP    =NONE         RELWFN=NONE         LOCAL =NONE         NUMGRD=       F
 ISPHER=      -1     NOSYM =       0     MAXIT =      30     UNITS =ANGS    
 PLTORB=       F     MOLPLT=       F     AIMPAC=       F     FRIEND=        
 NPRINT=       7     IREST =       0     GEOM  =INPUT   
 NORMF =       0     NORMP =       0     ITOL  =      20     ICUT  =       9
 INTTYP=BEST         GRDTYP=BEST         QMTTOL= 1.0E-06

     $SYSTEM OPTIONS
     ---------------
  REPLICATED MEMORY=     1000000 WORDS (ON EVERY NODE).
 DISTRIBUTED MEMDDI=           0 MILLION WORDS IN AGGREGATE,
 MEMDDI DISTRIBUTED OVER   2 PROCESSORS IS           0 WORDS/PROCESSOR.
 TOTAL MEMORY REQUESTED ON EACH PROCESSOR=     1000000 WORDS.
 TIMLIM=      525600.00 MINUTES, OR     365.0 DAYS.
 PARALL= T  BALTYP=  DLB     KDIAG=    0  COREFL= F
 MXSEQ2=     300 MXSEQ3=     150  mem10=         0

          ----------------
          PROPERTIES INPUT
          ----------------

     MOMENTS            FIELD           POTENTIAL          DENSITY
 IEMOM =       1   IEFLD =       0   IEPOT =       0   IEDEN =       0
 WHERE =COMASS     WHERE =NUCLEI     WHERE =NUCLEI     WHERE =NUCLEI  
 OUTPUT=BOTH       OUTPUT=BOTH       OUTPUT=BOTH       OUTPUT=BOTH    
 IEMINT=       0   IEFINT=       0                     IEDINT=       0
                                                       MORB  =       0
          EXTRAPOLATION IN EFFECT
 ORBITAL PRINTING OPTION: NPREO=     1     7     2     1

     -------------------------------
     INTEGRAL TRANSFORMATION OPTIONS
     -------------------------------
     NWORD  =            0
     CUTOFF = 1.0E-09     MPTRAN =       0
     DIRTRF =       F     AOINTS =DUP     

          ----------------------
          INTEGRAL INPUT OPTIONS
          ----------------------
 NOPK  =       1 NORDER=       0 SCHWRZ=       F

     ------------------------------------------
     THE POINT GROUP IS C1 , NAXIS= 0, ORDER= 1
     ------------------------------------------

     DIMENSIONS OF THE SYMMETRY SUBSPACES ARE
 A   =    7

 ..... DONE SETTING UP THE RUN .....
 CPU     0: STEP CPU TIME=     0.02 TOTAL CPU TIME=        0.0 (    0.0 MIN)
 TOTAL WALL CLOCK TIME=        0.0 SECONDS, CPU UTILIZATION IS  50.00%


          -----------------------------
          STATIONARY POINT LOCATION RUN
          -----------------------------

 OBTAINING INITIAL HESSIAN, HESS=GUESS   
 CARTESIAN COORDINATE OPTIMIZATION USING BADGER'S RULE FORCE CONSTANT GUESS

          PARAMETERS CONTROLLING GEOMETRY SEARCH ARE
          METHOD =QA                  UPHESS =BFGS    
          NNEG   =         0          NFRZ   =         0
          NSTEP  =      1000          IFOLOW =         1
          HESS   =GUESS               RESTAR =         F
          IHREP  =         0          HSSEND =         F
          NPRT   =         0          NPUN   =         0
          OPTTOL = 1.000E-12          RMIN   = 1.500E-03
          RMAX   = 1.000E-01          RLIM   = 7.000E-02
          DXMAX  = 3.000E-01          PURIFY =         F
          MOVIE  =         F          TRUPD  =         T
          TRMAX  = 5.000E-01          TRMIN  = 5.000E-02
          ITBMAT =         5          STPT   =         F
          STSTEP = 1.000E-02          PROJCT=          T

 BEGINNING GEOMETRY SEARCH POINT NSERCH=   0 ...

 COORDINATES OF ALL ATOMS ARE (ANGS)
   ATOM   CHARGE       X              Y              Z
 ------------------------------------------------------------
 H           1.0   0.0000000000  -1.0000000000   0.0000000000
 H           1.0   0.0000000000   1.0000000000   0.0000000000
 O           8.0   0.0000000000   0.0000000000   0.5000000000

          ********************
          1 ELECTRON INTEGRALS
          ********************
 ...... END OF ONE-ELECTRON INTEGRALS ......
 CPU     0: STEP CPU TIME=     0.01 TOTAL CPU TIME=        0.0 (    0.0 MIN)
 TOTAL WALL CLOCK TIME=        0.0 SECONDS, CPU UTILIZATION IS  75.00%

          -------------
          GUESS OPTIONS
          -------------
          GUESS =HUCKEL            NORB  =       0          NORDER=       0
          MIX   =       F          PRTMO =       F          PUNMO =       F
          TOLZ  = 1.0E-08          TOLE  = 1.0E-05
          SYMDEN=       F          PURIFY=       F

 INITIAL GUESS ORBITALS GENERATED BY HUCKEL   ROUTINE.
 HUCKEL GUESS REQUIRES      2569 WORDS.

 SYMMETRIES FOR INITIAL GUESS ORBITALS FOLLOW.   BOTH SET(S).
     5 ORBITALS ARE OCCUPIED (    1 CORE ORBITALS).
     2=A        3=A        4=A        5=A        6=A        7=A   
 ...... END OF INITIAL ORBITAL SELECTION ......
 CPU     0: STEP CPU TIME=     0.00 TOTAL CPU TIME=        0.0 (    0.0 MIN)
 TOTAL WALL CLOCK TIME=        0.0 SECONDS, CPU UTILIZATION IS  75.00%

                    ----------------------
                    AO INTEGRAL TECHNOLOGY
                    ----------------------
     S,P,L SHELL ROTATED AXIS INTEGRALS, REPROGRAMMED BY
        KAZUYA ISHIMURA (IMS) AND JOSE SIERRA (SYNSTAR).
     S,P,D,L SHELL ROTATED AXIS INTEGRALS PROGRAMMED BY
        KAZUYA ISHIMURA (INSTITUTE FOR MOLECULAR SCIENCE).
     S,P,D,F,G SHELL TO TOTAL QUARTET ANGULAR MOMENTUM SUM 5,
        ERIC PROGRAM BY GRAHAM FLETCHER (ELORET AND NASA ADVANCED
        SUPERCOMPUTING DIVISION, AMES RESEARCH CENTER).
     S,P,D,F,G,L SHELL GENERAL RYS QUADRATURE PROGRAMMED BY
        MICHEL DUPUIS (PACIFIC NORTHWEST NATIONAL LABORATORY).

          --------------------
          2 ELECTRON INTEGRALS
          --------------------

 THE -PK- OPTION IS OFF, THE INTEGRALS ARE NOT IN SUPERMATRIX FORM.
 STORING   15000 INTEGRALS/RECORD ON DISK, USING 12 BYTES/INTEGRAL.
 TWO ELECTRON INTEGRAL EVALUATION REQUIRES   89366 WORDS OF MEMORY.
 II,JST,KST,LST =  1  1  1  1 NREC =         1 INTLOC =    1
 II,JST,KST,LST =  2  1  1  1 NREC =         1 INTLOC =    1
 II,JST,KST,LST =  3  1  1  1 NREC =         1 INTLOC =    6
 II,JST,KST,LST =  4  1  1  1 NREC =         1 INTLOC =   15
 TOTAL NUMBER OF NONZERO TWO-ELECTRON INTEGRALS =                 228
          2 INTEGRAL RECORDS WERE STORED ON DISK FILE  8.
  ...... END OF TWO-ELECTRON INTEGRALS .....
 CPU     0: STEP CPU TIME=     0.01 TOTAL CPU TIME=        0.0 (    0.0 MIN)
 TOTAL WALL CLOCK TIME=        0.1 SECONDS, CPU UTILIZATION IS  80.00%

          --------------------------
                 RHF SCF CALCULATION
          --------------------------

     NUCLEAR ENERGY =         7.8375569539
     MAXIT =   30     NPUNCH=    2
     EXTRAP=T  DAMP=F  SHIFT=F  RSTRCT=F  DIIS=F  DEM=F  SOSCF=F
     DENSITY MATRIX CONV=  1.00E-05
     MEMORY REQUIRED FOR RHF ITERS=     30441 WORDS.

 ITER EX DEM     TOTAL ENERGY        E CHANGE  DENSITY CHANGE    DIIS ERROR
   1  0  0      -74.7457135839   -74.7457135839   0.516511035   0.000000000
   2  1  0      -74.8834404348    -0.1377268509   0.171632471   0.000000000
   3  2  0      -74.9001440205    -0.0167035857   0.069532352   0.000000000
   4  3  0      -74.9028968582    -0.0027528377   0.028284935   0.000000000
   5  0  0      -74.9034858141    -0.0005889559   0.020726943   0.000000000
   6  1  0      -74.9036659196    -0.0001801054   0.003178007   0.000000000
   7  2  0      -74.9036755168    -0.0000095973   0.001743267   0.000000000
   8  3  0      -74.9036779164    -0.0000023996   0.000881331   0.000000000
   9  0  0      -74.9036785382    -0.0000006217   0.000920986   0.000000000
  10  1  0      -74.9036787586    -0.0000002204   0.000015707   0.000000000
  11  2  0      -74.9036787587    -0.0000000001   0.000005234   0.000000000
  12  3  0      -74.9036787588    -0.0000000000   0.000001920   0.000000000

          -----------------
          DENSITY CONVERGED
          -----------------
     TIME TO FORM FOCK OPERATORS=       0.0 SECONDS (       0.0 SEC/ITER)
     TIME TO SOLVE SCF EQUATIONS=       0.0 SECONDS (       0.0 SEC/ITER)

 FINAL RHF ENERGY IS      -74.9036787588 AFTER  12 ITERATIONS

          ------------
          EIGENVECTORS
          ------------

                      1          2          3          4          5
                  -20.2225    -1.1789    -0.5592    -0.3789    -0.3644
                     A          A          A          A          A   
    1  H  1  S   -0.004525   0.146998  -0.450492  -0.310096   0.000000
    2  H  2  S   -0.004525   0.146998   0.450492  -0.310096   0.000000
    3  O  3  S    0.994419  -0.240208  -0.000000  -0.081967   0.000000
    4  O  3  S    0.024073   0.890577  -0.000000   0.423010   0.000000
    5  O  3  X    0.000000   0.000000  -0.000000  -0.000000   1.000000
    6  O  3  Y    0.000000   0.000000   0.576532  -0.000000   0.000000
    7  O  3  Z   -0.002545  -0.067730  -0.000000   0.811578   0.000000

                      6          7
                    0.4066     0.6363
                     A          A   
    1  H  1  S    0.719634   0.713249
    2  H  2  S    0.719634  -0.713249
    3  O  3  S    0.117577  -0.000000
    4  O  3  S   -0.686327  -0.000000
    5  O  3  X    0.000000  -0.000000
    6  O  3  Y    0.000000   0.959823
    7  O  3  Z    0.627205  -0.000000
 ...... END OF RHF CALCULATION ......
 CPU     0: STEP CPU TIME=     0.00 TOTAL CPU TIME=        0.0 (    0.0 MIN)
 TOTAL WALL CLOCK TIME=        0.1 SECONDS, CPU UTILIZATION IS  66.67%

     ----------------------------------------------------------------
     PROPERTY VALUES FOR THE RHF   SELF-CONSISTENT FIELD WAVEFUNCTION
     ----------------------------------------------------------------

          -----------------
          ENERGY COMPONENTS
          -----------------

         WAVEFUNCTION NORMALIZATION =       1.0000000000

                ONE ELECTRON ENERGY =    -120.0744954793
                TWO ELECTRON ENERGY =      37.3332597667
           NUCLEAR REPULSION ENERGY =       7.8375569539
                                      ------------------
                       TOTAL ENERGY =     -74.9036787588

 ELECTRON-ELECTRON POTENTIAL ENERGY =      37.3332597667
  NUCLEUS-ELECTRON POTENTIAL ENERGY =    -194.4593006955
   NUCLEUS-NUCLEUS POTENTIAL ENERGY =       7.8375569539
                                      ------------------
             TOTAL POTENTIAL ENERGY =    -149.2884839749
               TOTAL KINETIC ENERGY =      74.3848052162
                 VIRIAL RATIO (V/T) =       2.0069755314

  ...... PI ENERGY ANALYSIS ......

 ENERGY ANALYSIS:
            FOCK ENERGY=    -45.4079750130
          BARE H ENERGY=   -120.0744954793
     ELECTRONIC ENERGY =    -82.7412352462
         KINETIC ENERGY=     74.3848052162
          N-N REPULSION=      7.8375569539
           TOTAL ENERGY=    -74.9036782923
        SIGMA PART(1+2)=    -75.0421016770
               (K,V1,2)=     69.3273427642   -174.7324242313     30.3629797902
           PI PART(1+2)=     -7.6991335692
               (K,V1,2)=      5.0574624520    -19.7268764642      6.9702804430
  SIGMA SKELETON, ERROR=    -67.2045447231     -0.0000000000
             MIXED PART= 0.00000E+00 0.00000E+00 0.00000E+00 0.00000E+00
 ...... END OF PI ENERGY ANALYSIS ......

          ---------------------------------------
          MULLIKEN AND LOWDIN POPULATION ANALYSES
          ---------------------------------------

     ATOMIC MULLIKEN POPULATION IN EACH MOLECULAR ORBITAL

                      1          2          3          4          5

                  2.000000   2.000000   2.000000   2.000000   2.000000

    1            -0.000371   0.147114   0.512554   0.193672   0.000000
    2            -0.000371   0.147114   0.512554   0.193672   0.000000
    3             2.000741   1.705772   0.974892   1.612655   2.000000

               ----- POPULATIONS IN EACH AO -----
                             MULLIKEN      LOWDIN
              1  H  1  S      0.85297     0.88827
              2  H  2  S      0.85297     0.88827
              3  O  3  S      1.99810     1.99614
              4  O  3  S      1.83838     1.74376
              5  O  3  X      2.00000     2.00000
              6  O  3  Y      0.97489     0.99265
              7  O  3  Z      1.48269     1.49090

          ----- MULLIKEN ATOMIC OVERLAP POPULATIONS -----
          (OFF-DIAGONAL ELEMENTS NEED TO BE MULTIPLIED BY 2)

             1           2           3

    1    0.6414620
    2   -0.0203038   0.6414620
    3    0.2318113   0.2318113   7.8304385

          TOTAL MULLIKEN AND LOWDIN ATOMIC POPULATIONS
       ATOM         MULL.POP.    CHARGE          LOW.POP.     CHARGE
    1 H             0.852970    0.147030         0.888273    0.111727
    2 H             0.852970    0.147030         0.888273    0.111727
    3 O             8.294061   -0.294061         8.223454   -0.223454

          -------------------------------
          BOND ORDER AND VALENCE ANALYSIS     BOND ORDER THRESHOLD=0.050
          -------------------------------

                   BOND                       BOND                       BOND
  ATOM PAIR DIST  ORDER      ATOM PAIR DIST  ORDER      ATOM PAIR DIST  ORDER
    1   3  1.118  0.949        2   3  1.118  0.949

                       TOTAL       BONDED        FREE
      ATOM            VALENCE     VALENCE     VALENCE
    1 H                 0.978       0.978       0.000
    2 H                 0.978       0.978       0.000
    3 O                 1.898       1.898       0.000

          ---------------------
          ELECTROSTATIC MOMENTS
          ---------------------

 POINT   1           X           Y           Z (BOHR)    CHARGE
                 0.000000    0.000000    0.839119        0.00 (A.U.)
         DX          DY          DZ         /D/  (DEBYE)
     0.000000   -0.000000   -1.390293    1.390293
 ...... END OF PROPERTY EVALUATION ......
 CPU     0: STEP CPU TIME=     0.00 TOTAL CPU TIME=        0.0 (    0.0 MIN)
 TOTAL WALL CLOCK TIME=        0.1 SECONDS, CPU UTILIZATION IS  66.67%

 BEGINNING ONE ELECTRON GRADIENT...
 ..... END OF 1-ELECTRON GRADIENT ......
 CPU     0: STEP CPU TIME=     0.00 TOTAL CPU TIME=        0.0 (    0.0 MIN)
 TOTAL WALL CLOCK TIME=        0.1 SECONDS, CPU UTILIZATION IS  66.67%

          ----------------------
          GRADIENT OF THE ENERGY
          ----------------------
 THE COARSE/FINE SCHWARZ SCREENINGS SKIPPED            0/           0 BLOCKS.
 THE NUMBER OF GRADIENT INTEGRAL BLOCKS COMPUTED WAS        47
 ...... END OF 2-ELECTRON GRADIENT ......
 CPU     0: STEP CPU TIME=     0.00 TOTAL CPU TIME=        0.0 (    0.0 MIN)
 TOTAL WALL CLOCK TIME=        0.1 SECONDS, CPU UTILIZATION IS  66.67%

          NSERCH=  0     ENERGY=     -74.9036788

                                 -----------------------
                                 GRADIENT (HARTREE/BOHR)
                                 -----------------------
        ATOM     ZNUC       DE/DX         DE/DY         DE/DZ
 --------------------------------------------------------------
    1  H            1.0     0.0000000    -0.1256577     0.0007526
    2  H            1.0     0.0000000     0.1256577     0.0007526
    3  O            8.0     0.0000000     0.0000000    -0.0015053

          MAXIMUM GRADIENT = 0.1256577    RMS GRADIENT = 0.0592388

 NSERCH:   0  E=      -74.9036787588  GRAD. MAX=  0.1256577  R.M.S.=  0.0592388

          FORCE CONSTANT MATRIX NOT UPDATED --- TAKING FIRST STEP
          MIN SEARCH, CORRECT HESSIAN, TRYING PURE NR STEP
               NR STEP HAS LENGTH         =   5.808226
          TRIM/QA LAMBDA FOR NON-TS MODES =  -0.42363907
          TRIM/QA STEP HAS LENGTH         =   0.300000
          RADIUS OF STEP TAKEN=   0.30000  CURRENT TRUST RADIUS=   0.30000

 BEGINNING GEOMETRY SEARCH POINT NSERCH=   1 ...

 COORDINATES OF ALL ATOMS ARE (ANGS)
   ATOM   CHARGE       X              Y              Z
 ------------------------------------------------------------
 H           1.0   0.0000000000  -0.8932751512  -0.0200922198
 H           1.0   0.0000000000   0.8932751512  -0.0200922198
 O           8.0   0.0000000000   0.0000000000   0.5401844396

          INTERNUCLEAR DISTANCES (ANGS.)
          ------------------------------

                1 H          2 H          3 O     

   1 H       0.0000000    1.7865503 *  1.0544432 *
   2 H       1.7865503 *  0.0000000    1.0544432 *
   3 O       1.0544432 *  1.0544432 *  0.0000000  

  * ... LESS THAN  3.000

 ...... END OF ONE-ELECTRON INTEGRALS ......
 CPU     0: STEP CPU TIME=     0.00 TOTAL CPU TIME=        0.0 (    0.0 MIN)
 TOTAL WALL CLOCK TIME=        0.1 SECONDS, CPU UTILIZATION IS  66.67%
 TOTAL NUMBER OF NONZERO TWO-ELECTRON INTEGRALS =                 228
          2 INTEGRAL RECORDS WERE STORED ON DISK FILE  8.
  ...... END OF TWO-ELECTRON INTEGRALS .....
 CPU     0: STEP CPU TIME=     0.00 TOTAL CPU TIME=        0.0 (    0.0 MIN)
 TOTAL WALL CLOCK TIME=        0.1 SECONDS, CPU UTILIZATION IS  66.67%

          --------------------------
                 RHF SCF CALCULATION
          --------------------------
     DENSITY MATRIX CONV=  2.00E-04

 ITER EX DEM     TOTAL ENERGY        E CHANGE  DENSITY CHANGE    DIIS ERROR
   1  0  0      -74.9450969174   -74.9450969174   0.015540076   0.000000000
   2  1  0      -74.9452808390    -0.0001839216   0.005828042   0.000000000
   3  2  0      -74.9453020690    -0.0000212300   0.002289350   0.000000000
   4  3  0      -74.9453066048    -0.0000045358   0.001144349   0.000000000
   5  0  0      -74.9453076191    -0.0000010143   0.001012311   0.000000000
   6  1  0      -74.9453079129    -0.0000002938   0.000009775   0.000000000
   7  2  0      -74.9453079130    -0.0000000000   0.000003365   0.000000000

          -----------------
          DENSITY CONVERGED
          -----------------
     TIME TO FORM FOCK OPERATORS=       0.0 SECONDS (       0.0 SEC/ITER)
     TIME TO SOLVE SCF EQUATIONS=       0.0 SECONDS (       0.0 SEC/ITER)

 FINAL RHF ENERGY IS      -74.9453079130 AFTER   7 ITERATIONS
 ...... END OF RHF CALCULATION ......
 CPU     0: STEP CPU TIME=     0.00 TOTAL CPU TIME=        0.0 (    0.0 MIN)
 TOTAL WALL CLOCK TIME=        0.1 SECONDS, CPU UTILIZATION IS  66.67%
 ..... END OF 1-ELECTRON GRADIENT ......
 CPU     0: STEP CPU TIME=     0.00 TOTAL CPU TIME=        0.0 (    0.0 MIN)
 TOTAL WALL CLOCK TIME=        0.1 SECONDS, CPU UTILIZATION IS  66.67%
 ...... END OF 2-ELECTRON GRADIENT ......
 CPU     0: STEP CPU TIME=     0.00 TOTAL CPU TIME=        0.0 (    0.0 MIN)
 TOTAL WALL CLOCK TIME=        0.1 SECONDS, CPU UTILIZATION IS  66.67%

          NSERCH=  1     ENERGY=     -74.9453079

                                 -----------------------
                                 GRADIENT (HARTREE/BOHR)
                                 -----------------------
        ATOM     ZNUC       DE/DX         DE/DY         DE/DZ
 --------------------------------------------------------------
    1  H            1.0     0.0000000    -0.0803017    -0.0041145
    2  H            1.0     0.0000000     0.0803017    -0.0041145
    3  O            8.0     0.0000000     0.0000000     0.0082289

          MAXIMUM GRADIENT = 0.0803017    RMS GRADIENT = 0.0380034

 NSERCH:   1  E=      -74.9453079130  GRAD. MAX=  0.0803017  R.M.S.=  0.0380034

          HESSIAN UPDATED USING THE BFGS FORMULA
             ACTUAL ENERGY CHANGE WAS  -0.0416291542
          PREDICTED ENERGY CHANGE WAS  -0.0444922317 RATIO=  0.936
          MIN SEARCH, CORRECT HESSIAN, TRYING PURE NR STEP
               NR STEP HAS LENGTH         =   0.710908
          TRIM/QA LAMBDA FOR NON-TS MODES =  -0.04399535
          TRIM/QA STEP HAS LENGTH         =   0.500000
          RADIUS OF STEP TAKEN=   0.50000  CURRENT TRUST RADIUS=   0.50000

 BEGINNING GEOMETRY SEARCH POINT NSERCH=   2 ...

 COORDINATES OF ALL ATOMS ARE (ANGS)
   ATOM   CHARGE       X              Y              Z
 ------------------------------------------------------------
 H           1.0   0.0000000000  -0.7234289073   0.0252061376
 H           1.0   0.0000000000   0.7234289073   0.0252061376
 O           8.0  -0.0000000000  -0.0000000000   0.4495877249

          INTERNUCLEAR DISTANCES (ANGS.)
          ------------------------------

                1 H          2 H          3 O     

   1 H       0.0000000    1.4468578 *  0.8387187 *
   2 H       1.4468578 *  0.0000000    0.8387187 *
   3 O       0.8387187 *  0.8387187 *  0.0000000  

  * ... LESS THAN  3.000

 ...... END OF ONE-ELECTRON INTEGRALS ......
 CPU     0: STEP CPU TIME=     0.00 TOTAL CPU TIME=        0.0 (    0.0 MIN)
 TOTAL WALL CLOCK TIME=        0.1 SECONDS, CPU UTILIZATION IS  66.67%
 TOTAL NUMBER OF NONZERO TWO-ELECTRON INTEGRALS =                 228
          2 INTEGRAL RECORDS WERE STORED ON DISK FILE  8.
  ...... END OF TWO-ELECTRON INTEGRALS .....
 CPU     0: STEP CPU TIME=     0.01 TOTAL CPU TIME=        0.0 (    0.0 MIN)
 TOTAL WALL CLOCK TIME=        0.1 SECONDS, CPU UTILIZATION IS  71.43%

          --------------------------
                 RHF SCF CALCULATION
          --------------------------
     DENSITY MATRIX CONV=  2.00E-04

 ITER EX DEM     TOTAL ENERGY        E CHANGE  DENSITY CHANGE    DIIS ERROR
   1  0  0      -74.8773106015   -74.8773106015   0.141796964   0.000000000
   2  1  0      -74.8907341794    -0.0134235779   0.058085740   0.000000000
   3  2  0      -74.8918671304    -0.0011329510   0.021783599   0.000000000
   4  3  0      -74.8920509258    -0.0001837954   0.008504433   0.000000000
   5  0  0      -74.8920811427    -0.0000302168   0.005665531   0.000000000
   6  1  0      -74.8920871083    -0.0000059656   0.000009285   0.000000000
   7  2  0      -74.8920871084    -0.0000000001   0.000002787   0.000000000

          -----------------
          DENSITY CONVERGED
          -----------------
     TIME TO FORM FOCK OPERATORS=       0.0 SECONDS (       0.0 SEC/ITER)
     TIME TO SOLVE SCF EQUATIONS=       0.0 SECONDS (       0.0 SEC/ITER)

 FINAL RHF ENERGY IS      -74.8920871084 AFTER   7 ITERATIONS
 ...... END OF RHF CALCULATION ......
 CPU     0: STEP CPU TIME=     0.00 TOTAL CPU TIME=        0.0 (    0.0 MIN)
 TOTAL WALL CLOCK TIME=        0.1 SECONDS, CPU UTILIZATION IS  71.43%
 ..... END OF 1-ELECTRON GRADIENT ......
 CPU     0: STEP CPU TIME=     0.00 TOTAL CPU TIME=        0.0 (    0.0 MIN)
 TOTAL WALL CLOCK TIME=        0.1 SECONDS, CPU UTILIZATION IS  71.43%
 ...... END OF 2-ELECTRON GRADIENT ......
 CPU     0: STEP CPU TIME=     0.00 TOTAL CPU TIME=        0.0 (    0.0 MIN)
 TOTAL WALL CLOCK TIME=        0.1 SECONDS, CPU UTILIZATION IS  71.43%

          NSERCH=  2     ENERGY=     -74.8920871

                                 -----------------------
                                 GRADIENT (HARTREE/BOHR)
                                 -----------------------
        ATOM     ZNUC       DE/DX         DE/DY         DE/DZ
 --------------------------------------------------------------
    1  H            1.0     0.0000000     0.2051129     0.1599032
    2  H            1.0     0.0000000    -0.2051129     0.1599032
    3  O            8.0     0.0000000     0.0000000    -0.3198064

          MAXIMUM GRADIENT = 0.3198064    RMS GRADIENT = 0.1624660

 NSERCH:   2  E=      -74.8920871084  GRAD. MAX=  0.3198064  R.M.S.=  0.1624660

          HESSIAN UPDATED USING THE BFGS FORMULA
             ACTUAL ENERGY CHANGE WAS   0.0532208046
          PREDICTED ENERGY CHANGE WAS  -0.0323298945 RATIO= -1.646
          MIN SEARCH, CORRECT HESSIAN, TRYING PURE NR STEP
               NR STEP HAS LENGTH         =   1.155706
          TRIM/QA LAMBDA FOR NON-TS MODES =  -0.80298877
          TRIM/QA STEP HAS LENGTH         =   0.250000
          RADIUS OF STEP TAKEN=   0.25000  CURRENT TRUST RADIUS=   0.25000

 BEGINNING GEOMETRY SEARCH POINT NSERCH=   3 ...

 COORDINATES OF ALL ATOMS ARE (ANGS)
   ATOM   CHARGE       X              Y              Z
 ------------------------------------------------------------
 H           1.0   0.0000000000  -0.7655991665  -0.0230036877
 H           1.0   0.0000000000   0.7655991665  -0.0230036877
 O           8.0  -0.0000000000   0.0000000000   0.5460073754

          INTERNUCLEAR DISTANCES (ANGS.)
          ------------------------------

                1 H          2 H          3 O     

   1 H       0.0000000    1.5311983 *  0.9538950 *
   2 H       1.5311983 *  0.0000000    0.9538950 *
   3 O       0.9538950 *  0.9538950 *  0.0000000  

  * ... LESS THAN  3.000

 ...... END OF ONE-ELECTRON INTEGRALS ......
 CPU     0: STEP CPU TIME=     0.00 TOTAL CPU TIME=        0.0 (    0.0 MIN)
 TOTAL WALL CLOCK TIME=        0.1 SECONDS, CPU UTILIZATION IS  71.43%
 TOTAL NUMBER OF NONZERO TWO-ELECTRON INTEGRALS =                 228
          2 INTEGRAL RECORDS WERE STORED ON DISK FILE  8.
  ...... END OF TWO-ELECTRON INTEGRALS .....
 CPU     0: STEP CPU TIME=     0.00 TOTAL CPU TIME=        0.0 (    0.0 MIN)
 TOTAL WALL CLOCK TIME=        0.1 SECONDS, CPU UTILIZATION IS  71.43%

          --------------------------
                 RHF SCF CALCULATION
          --------------------------
     DENSITY MATRIX CONV=  5.00E-04

 ITER EX DEM     TOTAL ENERGY        E CHANGE  DENSITY CHANGE    DIIS ERROR
   1  0  0      -74.9506371263   -74.9506371263   0.129259175   0.000000000
   2  1  0      -74.9604737916    -0.0098366653   0.043022530   0.000000000
   3  2  0      -74.9613457126    -0.0008719210   0.016245266   0.000000000
   4  3  0      -74.9614989130    -0.0001532004   0.006557159   0.000000000
   5  0  0      -74.9615270719    -0.0000281589   0.004928149   0.000000000
   6  1  0      -74.9615335245    -0.0000064526   0.000147347   0.000000000
   7  2  0      -74.9615335317    -0.0000000072   0.000048487   0.000000000
   8  3  0      -74.9615335326    -0.0000000009   0.000017152   0.000000000

          -----------------
          DENSITY CONVERGED
          -----------------
     TIME TO FORM FOCK OPERATORS=       0.0 SECONDS (       0.0 SEC/ITER)
     TIME TO SOLVE SCF EQUATIONS=       0.0 SECONDS (       0.0 SEC/ITER)

 FINAL RHF ENERGY IS      -74.9615335326 AFTER   8 ITERATIONS
 ...... END OF RHF CALCULATION ......
 CPU     0: STEP CPU TIME=     0.00 TOTAL CPU TIME=        0.0 (    0.0 MIN)
 TOTAL WALL CLOCK TIME=        0.1 SECONDS, CPU UTILIZATION IS  71.43%
 ..... END OF 1-ELECTRON GRADIENT ......
 CPU     0: STEP CPU TIME=     0.01 TOTAL CPU TIME=        0.1 (    0.0 MIN)
 TOTAL WALL CLOCK TIME=        0.1 SECONDS, CPU UTILIZATION IS  85.71%
 ...... END OF 2-ELECTRON GRADIENT ......
 CPU     0: STEP CPU TIME=     0.00 TOTAL CPU TIME=        0.1 (    0.0 MIN)
 TOTAL WALL CLOCK TIME=        0.1 SECONDS, CPU UTILIZATION IS  85.71%

          NSERCH=  3     ENERGY=     -74.9615335

                                 -----------------------
                                 GRADIENT (HARTREE/BOHR)
                                 -----------------------
        ATOM     ZNUC       DE/DX         DE/DY         DE/DZ
 --------------------------------------------------------------
    1  H            1.0     0.0000000     0.0238841     0.0371218
    2  H            1.0     0.0000000    -0.0238841     0.0371218
    3  O            8.0     0.0000000     0.0000000    -0.0742436

          MAXIMUM GRADIENT = 0.0742436    RMS GRADIENT = 0.0323334

 NSERCH:   3  E=      -74.9615335326  GRAD. MAX=  0.0742436  R.M.S.=  0.0323334

          HESSIAN UPDATED USING THE BFGS FORMULA
             ACTUAL ENERGY CHANGE WAS  -0.0694464242
          PREDICTED ENERGY CHANGE WAS  -0.0851420604 RATIO=  0.816
          MIN SEARCH, CORRECT HESSIAN, TRYING PURE NR STEP
               NR STEP HAS LENGTH         =   0.565939
          TRIM/QA LAMBDA FOR NON-TS MODES =  -0.03709252
          TRIM/QA STEP HAS LENGTH         =   0.353553
          RADIUS OF STEP TAKEN=   0.35355  CURRENT TRUST RADIUS=   0.35355

 BEGINNING GEOMETRY SEARCH POINT NSERCH=   4 ...

 COORDINATES OF ALL ATOMS ARE (ANGS)
   ATOM   CHARGE       X              Y              Z
 ------------------------------------------------------------
 H           1.0   0.0000000000  -0.6802725174  -0.0813736229
 H           1.0   0.0000000000   0.6802725174  -0.0813736229
 O           8.0  -0.0000000000  -0.0000000000   0.6627472458

          INTERNUCLEAR DISTANCES (ANGS.)
          ------------------------------

                1 H          2 H          3 O     

   1 H       0.0000000    1.3605450 *  1.0082096 *
   2 H       1.3605450 *  0.0000000    1.0082096 *
   3 O       1.0082096 *  1.0082096 *  0.0000000  

  * ... LESS THAN  3.000

 ...... END OF ONE-ELECTRON INTEGRALS ......
 CPU     0: STEP CPU TIME=     0.00 TOTAL CPU TIME=        0.1 (    0.0 MIN)
 TOTAL WALL CLOCK TIME=        0.1 SECONDS, CPU UTILIZATION IS  85.71%
 TOTAL NUMBER OF NONZERO TWO-ELECTRON INTEGRALS =                 228
          2 INTEGRAL RECORDS WERE STORED ON DISK FILE  8.
  ...... END OF TWO-ELECTRON INTEGRALS .....
 CPU     0: STEP CPU TIME=     0.00 TOTAL CPU TIME=        0.1 (    0.0 MIN)
 TOTAL WALL CLOCK TIME=        0.1 SECONDS, CPU UTILIZATION IS  85.71%

          --------------------------
                 RHF SCF CALCULATION
          --------------------------
     DENSITY MATRIX CONV=  2.00E-04

 ITER EX DEM     TOTAL ENERGY        E CHANGE  DENSITY CHANGE    DIIS ERROR
   1  0  0      -74.9478060230   -74.9478060230   0.110222850   0.000000000
   2  1  0      -74.9536980195    -0.0058919965   0.030170595   0.000000000
   3  2  0      -74.9545747828    -0.0008767634   0.015085615   0.000000000
   4  3  0      -74.9547486568    -0.0001738739   0.006356331   0.000000000
   5  0  0      -74.9547845896    -0.0000359328   0.005514701   0.000000000
   6  1  0      -74.9547940745    -0.0000094849   0.000090075   0.000000000
   7  2  0      -74.9547940778    -0.0000000034   0.000026912   0.000000000
   8  3  0      -74.9547940782    -0.0000000004   0.000009079   0.000000000

          -----------------
          DENSITY CONVERGED
          -----------------
     TIME TO FORM FOCK OPERATORS=       0.0 SECONDS (       0.0 SEC/ITER)
     TIME TO SOLVE SCF EQUATIONS=       0.0 SECONDS (       0.0 SEC/ITER)

 FINAL RHF ENERGY IS      -74.9547940782 AFTER   8 ITERATIONS
 ...... END OF RHF CALCULATION ......
 CPU     0: STEP CPU TIME=     0.00 TOTAL CPU TIME=        0.1 (    0.0 MIN)
 TOTAL WALL CLOCK TIME=        0.1 SECONDS, CPU UTILIZATION IS  75.00%
 ..... END OF 1-ELECTRON GRADIENT ......
 CPU     0: STEP CPU TIME=     0.00 TOTAL CPU TIME=        0.1 (    0.0 MIN)
 TOTAL WALL CLOCK TIME=        0.1 SECONDS, CPU UTILIZATION IS  75.00%
 ...... END OF 2-ELECTRON GRADIENT ......
 CPU     0: STEP CPU TIME=     0.00 TOTAL CPU TIME=        0.1 (    0.0 MIN)
 TOTAL WALL CLOCK TIME=        0.1 SECONDS, CPU UTILIZATION IS  75.00%

          NSERCH=  4     ENERGY=     -74.9547941

                                 -----------------------
                                 GRADIENT (HARTREE/BOHR)
                                 -----------------------
        ATOM     ZNUC       DE/DX         DE/DY         DE/DZ
 --------------------------------------------------------------
    1  H            1.0     0.0000000     0.0260254    -0.0365328
    2  H            1.0     0.0000000    -0.0260254    -0.0365328
    3  O            8.0     0.0000000     0.0000000     0.0730655

          MAXIMUM GRADIENT = 0.0730655    RMS GRADIENT = 0.0322533

 NSERCH:   4  E=      -74.9547940782  GRAD. MAX=  0.0730655  R.M.S.=  0.0322533

          HESSIAN UPDATED USING THE BFGS FORMULA
             ACTUAL ENERGY CHANGE WAS   0.0067394544
          PREDICTED ENERGY CHANGE WAS  -0.0107510718 RATIO= -0.627
          MIN SEARCH, CORRECT HESSIAN, TRYING PURE NR STEP
               NR STEP HAS LENGTH         =   0.273483
          TRIM/QA LAMBDA FOR NON-TS MODES =  -0.16328665
          TRIM/QA STEP HAS LENGTH         =   0.176777
          RADIUS OF STEP TAKEN=   0.17678  CURRENT TRUST RADIUS=   0.17678

 BEGINNING GEOMETRY SEARCH POINT NSERCH=   5 ...

 COORDINATES OF ALL ATOMS ARE (ANGS)
   ATOM   CHARGE       X              Y              Z
 ------------------------------------------------------------
 H           1.0   0.0000000000  -0.7280900724  -0.0549859509
 H           1.0   0.0000000000   0.7280900724  -0.0549859509
 O           8.0  -0.0000000000   0.0000000000   0.6099719019

          INTERNUCLEAR DISTANCES (ANGS.)
          ------------------------------

                1 H          2 H          3 O     

   1 H       0.0000000    1.4561801 *  0.9860447 *
   2 H       1.4561801 *  0.0000000    0.9860447 *
   3 O       0.9860447 *  0.9860447 *  0.0000000  

  * ... LESS THAN  3.000

 ...... END OF ONE-ELECTRON INTEGRALS ......
 CPU     0: STEP CPU TIME=     0.00 TOTAL CPU TIME=        0.1 (    0.0 MIN)
 TOTAL WALL CLOCK TIME=        0.1 SECONDS, CPU UTILIZATION IS  75.00%
 TOTAL NUMBER OF NONZERO TWO-ELECTRON INTEGRALS =                 228
          2 INTEGRAL RECORDS WERE STORED ON DISK FILE  8.
  ...... END OF TWO-ELECTRON INTEGRALS .....
 CPU     0: STEP CPU TIME=     0.00 TOTAL CPU TIME=        0.1 (    0.0 MIN)
 TOTAL WALL CLOCK TIME=        0.1 SECONDS, CPU UTILIZATION IS  75.00%

          --------------------------
                 RHF SCF CALCULATION
          --------------------------
     DENSITY MATRIX CONV=  2.00E-04

 ITER EX DEM     TOTAL ENERGY        E CHANGE  DENSITY CHANGE    DIIS ERROR
   1  0  0      -74.9632986616   -74.9632986616   0.047830643   0.000000000
   2  1  0      -74.9644991815    -0.0012005199   0.014847025   0.000000000
   3  2  0      -74.9647000982    -0.0002009167   0.007090511   0.000000000
   4  3  0      -74.9647388346    -0.0000387365   0.003049628   0.000000000
   5  0  0      -74.9647464179    -0.0000075833   0.002452853   0.000000000
   6  1  0      -74.9647482668    -0.0000018489   0.000018101   0.000000000
   7  2  0      -74.9647482669    -0.0000000001   0.000005630   0.000000000

          -----------------
          DENSITY CONVERGED
          -----------------
     TIME TO FORM FOCK OPERATORS=       0.0 SECONDS (       0.0 SEC/ITER)
     TIME TO SOLVE SCF EQUATIONS=       0.0 SECONDS (       0.0 SEC/ITER)

 FINAL RHF ENERGY IS      -74.9647482669 AFTER   7 ITERATIONS
 ...... END OF RHF CALCULATION ......
 CPU     0: STEP CPU TIME=     0.00 TOTAL CPU TIME=        0.1 (    0.0 MIN)
 TOTAL WALL CLOCK TIME=        0.1 SECONDS, CPU UTILIZATION IS  75.00%
 ..... END OF 1-ELECTRON GRADIENT ......
 CPU     0: STEP CPU TIME=     0.00 TOTAL CPU TIME=        0.1 (    0.0 MIN)
 TOTAL WALL CLOCK TIME=        0.1 SECONDS, CPU UTILIZATION IS  75.00%
 ...... END OF 2-ELECTRON GRADIENT ......
 CPU     0: STEP CPU TIME=     0.00 TOTAL CPU TIME=        0.1 (    0.0 MIN)
 TOTAL WALL CLOCK TIME=        0.1 SECONDS, CPU UTILIZATION IS  75.00%

          NSERCH=  5     ENERGY=     -74.9647483

                                 -----------------------
                                 GRADIENT (HARTREE/BOHR)
                                 -----------------------
        ATOM     ZNUC       DE/DX         DE/DY         DE/DZ
 --------------------------------------------------------------
    1  H            1.0     0.0000000     0.0150867    -0.0055145
    2  H            1.0     0.0000000    -0.0150867    -0.0055145
    3  O            8.0     0.0000000     0.0000000     0.0110289

          MAXIMUM GRADIENT = 0.0150867    RMS GRADIENT = 0.0084174

 NSERCH:   5  E=      -74.9647482669  GRAD. MAX=  0.0150867  R.M.S.=  0.0084174

          HESSIAN UPDATED USING THE BFGS FORMULA
             ACTUAL ENERGY CHANGE WAS  -0.0099541887
          PREDICTED ENERGY CHANGE WAS  -0.0103682323 RATIO=  0.960
          MIN SEARCH, CORRECT HESSIAN, TRYING PURE NR STEP
               NR STEP HAS LENGTH         =   0.083840
          RADIUS OF STEP TAKEN=   0.08384  CURRENT TRUST RADIUS=   0.35355

 BEGINNING GEOMETRY SEARCH POINT NSERCH=   6 ...

 COORDINATES OF ALL ATOMS ARE (ANGS)
   ATOM   CHARGE       X              Y              Z
 ------------------------------------------------------------
 H           1.0   0.0000000000  -0.7550349222  -0.0457095879
 H           1.0   0.0000000000   0.7550349222  -0.0457095879
 O           8.0  -0.0000000000  -0.0000000000   0.5914191759

          INTERNUCLEAR DISTANCES (ANGS.)
          ------------------------------

                1 H          2 H          3 O     

   1 H       0.0000000    1.5100698 *  0.9879326 *
   2 H       1.5100698 *  0.0000000    0.9879326 *
   3 O       0.9879326 *  0.9879326 *  0.0000000  

  * ... LESS THAN  3.000

 ...... END OF ONE-ELECTRON INTEGRALS ......
 CPU     0: STEP CPU TIME=     0.00 TOTAL CPU TIME=        0.1 (    0.0 MIN)
 TOTAL WALL CLOCK TIME=        0.1 SECONDS, CPU UTILIZATION IS  75.00%
 TOTAL NUMBER OF NONZERO TWO-ELECTRON INTEGRALS =                 228
          2 INTEGRAL RECORDS WERE STORED ON DISK FILE  8.
  ...... END OF TWO-ELECTRON INTEGRALS .....
 CPU     0: STEP CPU TIME=     0.00 TOTAL CPU TIME=        0.1 (    0.0 MIN)
 TOTAL WALL CLOCK TIME=        0.1 SECONDS, CPU UTILIZATION IS  75.00%

          --------------------------
                 RHF SCF CALCULATION
          --------------------------
     DENSITY MATRIX CONV=  5.00E-05

 ITER EX DEM     TOTAL ENERGY        E CHANGE  DENSITY CHANGE    DIIS ERROR
   1  0  0      -74.9657574847   -74.9657574847   0.013650766   0.000000000
   2  1  0      -74.9658664164    -0.0001089317   0.005177969   0.000000000
   3  2  0      -74.9658852292    -0.0000188128   0.002157482   0.000000000
   4  3  0      -74.9658888159    -0.0000035866   0.000938900   0.000000000
   5  0  0      -74.9658895137    -0.0000006978   0.000756832   0.000000000
   6  1  0      -74.9658896833    -0.0000001696   0.000012548   0.000000000
   7  2  0      -74.9658896834    -0.0000000001   0.000004021   0.000000000
   8  3  0      -74.9658896834    -0.0000000000   0.000001411   0.000000000

          -----------------
          DENSITY CONVERGED
          -----------------
     TIME TO FORM FOCK OPERATORS=       0.0 SECONDS (       0.0 SEC/ITER)
     TIME TO SOLVE SCF EQUATIONS=       0.0 SECONDS (       0.0 SEC/ITER)

 FINAL RHF ENERGY IS      -74.9658896834 AFTER   8 ITERATIONS
 ...... END OF RHF CALCULATION ......
 CPU     0: STEP CPU TIME=     0.00 TOTAL CPU TIME=        0.1 (    0.0 MIN)
 TOTAL WALL CLOCK TIME=        0.1 SECONDS, CPU UTILIZATION IS  75.00%
 ..... END OF 1-ELECTRON GRADIENT ......
 CPU     0: STEP CPU TIME=     0.00 TOTAL CPU TIME=        0.1 (    0.0 MIN)
 TOTAL WALL CLOCK TIME=        0.1 SECONDS, CPU UTILIZATION IS  75.00%
 ...... END OF 2-ELECTRON GRADIENT ......
 CPU     0: STEP CPU TIME=     0.00 TOTAL CPU TIME=        0.1 (    0.0 MIN)
 TOTAL WALL CLOCK TIME=        0.1 SECONDS, CPU UTILIZATION IS  75.00%

          NSERCH=  6     ENERGY=     -74.9658897

                                 -----------------------
                                 GRADIENT (HARTREE/BOHR)
                                 -----------------------
        ATOM     ZNUC       DE/DX         DE/DY         DE/DZ
 --------------------------------------------------------------
    1  H            1.0     0.0000000     0.0022030     0.0004539
    2  H            1.0     0.0000000    -0.0022030     0.0004539
    3  O            8.0     0.0000000     0.0000000    -0.0009077

          MAXIMUM GRADIENT = 0.0022030    RMS GRADIENT = 0.0011026

 NSERCH:   6  E=      -74.9658896834  GRAD. MAX=  0.0022030  R.M.S.=  0.0011026

          HESSIAN UPDATED USING THE BFGS FORMULA
             ACTUAL ENERGY CHANGE WAS  -0.0011414165
          PREDICTED ENERGY CHANGE WAS  -0.0010581937 RATIO=  1.079
          MIN SEARCH, CORRECT HESSIAN, TRYING PURE NR STEP
               NR STEP HAS LENGTH         =   0.008163
          RADIUS OF STEP TAKEN=   0.00816  CURRENT TRUST RADIUS=   0.16768

 BEGINNING GEOMETRY SEARCH POINT NSERCH=   7 ...

 COORDINATES OF ALL ATOMS ARE (ANGS)
   ATOM   CHARGE       X              Y              Z
 ------------------------------------------------------------
 H           1.0   0.0000000000  -0.7579625519  -0.0452063078
 H           1.0   0.0000000000   0.7579625519  -0.0452063078
 O           8.0  -0.0000000000   0.0000000000   0.5904126155

          INTERNUCLEAR DISTANCES (ANGS.)
          ------------------------------

                1 H          2 H          3 O     

   1 H       0.0000000    1.5159251 *  0.9892010 *
   2 H       1.5159251 *  0.0000000    0.9892010 *
   3 O       0.9892010 *  0.9892010 *  0.0000000  

  * ... LESS THAN  3.000

 ...... END OF ONE-ELECTRON INTEGRALS ......
 CPU     0: STEP CPU TIME=     0.00 TOTAL CPU TIME=        0.1 (    0.0 MIN)
 TOTAL WALL CLOCK TIME=        0.1 SECONDS, CPU UTILIZATION IS  75.00%
 TOTAL NUMBER OF NONZERO TWO-ELECTRON INTEGRALS =                 228
          2 INTEGRAL RECORDS WERE STORED ON DISK FILE  8.
  ...... END OF TWO-ELECTRON INTEGRALS .....
 CPU     0: STEP CPU TIME=     0.00 TOTAL CPU TIME=        0.1 (    0.0 MIN)
 TOTAL WALL CLOCK TIME=        0.1 SECONDS, CPU UTILIZATION IS  75.00%

          --------------------------
                 RHF SCF CALCULATION
          --------------------------
     DENSITY MATRIX CONV=  1.00E-05

 ITER EX DEM     TOTAL ENERGY        E CHANGE  DENSITY CHANGE    DIIS ERROR
   1  0  0      -74.9659007784   -74.9659007784   0.000737962   0.000000000
   2  1  0      -74.9659010704    -0.0000002920   0.000257228   0.000000000
   3  2  0      -74.9659011121    -0.0000000417   0.000100394   0.000000000
   4  3  0      -74.9659011198    -0.0000000077   0.000043836   0.000000000
   5  4  0      -74.9659011213    -0.0000000015   0.000019262   0.000000000
   6  5  0      -74.9659011216    -0.0000000003   0.000008529   0.000000000
   7  6  0      -74.9659011217    -0.0000000001   0.000003774   0.000000000

          -----------------
          DENSITY CONVERGED
          -----------------
     TIME TO FORM FOCK OPERATORS=       0.0 SECONDS (       0.0 SEC/ITER)
     TIME TO SOLVE SCF EQUATIONS=       0.0 SECONDS (       0.0 SEC/ITER)

 FINAL RHF ENERGY IS      -74.9659011217 AFTER   7 ITERATIONS
 ...... END OF RHF CALCULATION ......
 CPU     0: STEP CPU TIME=     0.01 TOTAL CPU TIME=        0.1 (    0.0 MIN)
 TOTAL WALL CLOCK TIME=        0.1 SECONDS, CPU UTILIZATION IS  87.50%
 ..... END OF 1-ELECTRON GRADIENT ......
 CPU     0: STEP CPU TIME=     0.00 TOTAL CPU TIME=        0.1 (    0.0 MIN)
 TOTAL WALL CLOCK TIME=        0.1 SECONDS, CPU UTILIZATION IS  87.50%
 ...... END OF 2-ELECTRON GRADIENT ......
 CPU     0: STEP CPU TIME=     0.00 TOTAL CPU TIME=        0.1 (    0.0 MIN)
 TOTAL WALL CLOCK TIME=        0.1 SECONDS, CPU UTILIZATION IS  87.50%

          NSERCH=  7     ENERGY=     -74.9659011

                                 -----------------------
                                 GRADIENT (HARTREE/BOHR)
                                 -----------------------
        ATOM     ZNUC       DE/DX         DE/DY         DE/DZ
 --------------------------------------------------------------
    1  H            1.0     0.0000000     0.0001813     0.0001588
    2  H            1.0     0.0000000    -0.0001813     0.0001588
    3  O            8.0     0.0000000     0.0000000    -0.0003176

          MAXIMUM GRADIENT = 0.0003176    RMS GRADIENT = 0.0001553

 NSERCH:   7  E=      -74.9659011217  GRAD. MAX=  0.0003176  R.M.S.=  0.0001553

          HESSIAN UPDATED USING THE BFGS FORMULA
             ACTUAL ENERGY CHANGE WAS  -0.0000114383
          PREDICTED ENERGY CHANGE WAS  -0.0000108931 RATIO=  1.050
          MIN SEARCH, CORRECT HESSIAN, TRYING PURE NR STEP
               NR STEP HAS LENGTH         =   0.000396
          RADIUS OF STEP TAKEN=   0.00040  CURRENT TRUST RADIUS=   0.05000

 BEGINNING GEOMETRY SEARCH POINT NSERCH=   8 ...

 COORDINATES OF ALL ATOMS ARE (ANGS)
   ATOM   CHARGE       X              Y              Z
 ------------------------------------------------------------
 H           1.0   0.0000000000  -0.7580855918  -0.0452540580
 H           1.0  -0.0000000000   0.7580855918  -0.0452540580
 O           8.0  -0.0000000000  -0.0000000000   0.5905081159

          INTERNUCLEAR DISTANCES (ANGS.)
          ------------------------------

                1 H          2 H          3 O     

   1 H       0.0000000    1.5161712 *  0.9893873 *
   2 H       1.5161712 *  0.0000000    0.9893873 *
   3 O       0.9893873 *  0.9893873 *  0.0000000  

  * ... LESS THAN  3.000

 ...... END OF ONE-ELECTRON INTEGRALS ......
 CPU     0: STEP CPU TIME=     0.00 TOTAL CPU TIME=        0.1 (    0.0 MIN)
 TOTAL WALL CLOCK TIME=        0.1 SECONDS, CPU UTILIZATION IS  87.50%
 TOTAL NUMBER OF NONZERO TWO-ELECTRON INTEGRALS =                 228
          2 INTEGRAL RECORDS WERE STORED ON DISK FILE  8.
  ...... END OF TWO-ELECTRON INTEGRALS .....
 CPU     0: STEP CPU TIME=     0.00 TOTAL CPU TIME=        0.1 (    0.0 MIN)
 TOTAL WALL CLOCK TIME=        0.1 SECONDS, CPU UTILIZATION IS  87.50%

          --------------------------
                 RHF SCF CALCULATION
          --------------------------
     DENSITY MATRIX CONV=  1.00E-05

 ITER EX DEM     TOTAL ENERGY        E CHANGE  DENSITY CHANGE    DIIS ERROR
   1  0  0      -74.9659012072   -74.9659012072   0.000122070   0.000000000
   2  1  0      -74.9659012147    -0.0000000075   0.000028587   0.000000000
   3  2  0      -74.9659012154    -0.0000000007   0.000012938   0.000000000
   4  3  0      -74.9659012155    -0.0000000001   0.000005384   0.000000000

          -----------------
          DENSITY CONVERGED
          -----------------
     TIME TO FORM FOCK OPERATORS=       0.0 SECONDS (       0.0 SEC/ITER)
     TIME TO SOLVE SCF EQUATIONS=       0.0 SECONDS (       0.0 SEC/ITER)

 FINAL RHF ENERGY IS      -74.9659012155 AFTER   4 ITERATIONS
 ...... END OF RHF CALCULATION ......
 CPU     0: STEP CPU TIME=     0.00 TOTAL CPU TIME=        0.1 (    0.0 MIN)
 TOTAL WALL CLOCK TIME=        0.1 SECONDS, CPU UTILIZATION IS  77.78%
 ..... END OF 1-ELECTRON GRADIENT ......
 CPU     0: STEP CPU TIME=     0.00 TOTAL CPU TIME=        0.1 (    0.0 MIN)
 TOTAL WALL CLOCK TIME=        0.1 SECONDS, CPU UTILIZATION IS  77.78%
 ...... END OF 2-ELECTRON GRADIENT ......
 CPU     0: STEP CPU TIME=     0.00 TOTAL CPU TIME=        0.1 (    0.0 MIN)
 TOTAL WALL CLOCK TIME=        0.1 SECONDS, CPU UTILIZATION IS  77.78%

          NSERCH=  8     ENERGY=     -74.9659012

                                 -----------------------
                                 GRADIENT (HARTREE/BOHR)
                                 -----------------------
        ATOM     ZNUC       DE/DX         DE/DY         DE/DZ
 --------------------------------------------------------------
    1  H            1.0     0.0000000     0.0000121     0.0000215
    2  H            1.0     0.0000000    -0.0000121     0.0000215
    3  O            8.0     0.0000000     0.0000000    -0.0000429

          MAXIMUM GRADIENT = 0.0000429    RMS GRADIENT = 0.0000184

 NSERCH:   8  E=      -74.9659012155  GRAD. MAX=  0.0000429  R.M.S.=  0.0000184

          HESSIAN UPDATED USING THE BFGS FORMULA
             ACTUAL ENERGY CHANGE WAS  -0.0000000938
          PREDICTED ENERGY CHANGE WAS  -0.0000000851 RATIO=  1.101
          MIN SEARCH, CORRECT HESSIAN, TRYING PURE NR STEP
               NR STEP HAS LENGTH         =   0.000057
          RADIUS OF STEP TAKEN=   0.00006  CURRENT TRUST RADIUS=   0.05000

 BEGINNING GEOMETRY SEARCH POINT NSERCH=   9 ...

 COORDINATES OF ALL ATOMS ARE (ANGS)
   ATOM   CHARGE       X              Y              Z
 ------------------------------------------------------------
 H           1.0   0.0000000000  -0.7580825987  -0.0452663529
 H           1.0  -0.0000000000   0.7580825987  -0.0452663529
 O           8.0  -0.0000000000   0.0000000000   0.5905327058

          INTERNUCLEAR DISTANCES (ANGS.)
          ------------------------------

                1 H          2 H          3 O     

   1 H       0.0000000    1.5161652 *  0.9894087 *
   2 H       1.5161652 *  0.0000000    0.9894087 *
   3 O       0.9894087 *  0.9894087 *  0.0000000  

  * ... LESS THAN  3.000

 ...... END OF ONE-ELECTRON INTEGRALS ......
 CPU     0: STEP CPU TIME=     0.00 TOTAL CPU TIME=        0.1 (    0.0 MIN)
 TOTAL WALL CLOCK TIME=        0.1 SECONDS, CPU UTILIZATION IS  77.78%
 TOTAL NUMBER OF NONZERO TWO-ELECTRON INTEGRALS =                 228
          2 INTEGRAL RECORDS WERE STORED ON DISK FILE  8.
  ...... END OF TWO-ELECTRON INTEGRALS .....
 CPU     0: STEP CPU TIME=     0.00 TOTAL CPU TIME=        0.1 (    0.0 MIN)
 TOTAL WALL CLOCK TIME=        0.1 SECONDS, CPU UTILIZATION IS  77.78%

          --------------------------
                 RHF SCF CALCULATION
          --------------------------
     DENSITY MATRIX CONV=  1.00E-05

 ITER EX DEM     TOTAL ENERGY        E CHANGE  DENSITY CHANGE    DIIS ERROR
   1  0  0      -74.9659012167   -74.9659012167   0.000026456   0.000000000
   2  1  0      -74.9659012170    -0.0000000003   0.000008016   0.000000000
   3  2  0      -74.9659012170    -0.0000000000   0.000003537   0.000000000

          -----------------
          DENSITY CONVERGED
          -----------------
     TIME TO FORM FOCK OPERATORS=       0.0 SECONDS (       0.0 SEC/ITER)
     TIME TO SOLVE SCF EQUATIONS=       0.0 SECONDS (       0.0 SEC/ITER)

 FINAL RHF ENERGY IS      -74.9659012170 AFTER   3 ITERATIONS
 ...... END OF RHF CALCULATION ......
 CPU     0: STEP CPU TIME=     0.00 TOTAL CPU TIME=        0.1 (    0.0 MIN)
 TOTAL WALL CLOCK TIME=        0.1 SECONDS, CPU UTILIZATION IS  77.78%
 ..... END OF 1-ELECTRON GRADIENT ......
 CPU     0: STEP CPU TIME=     0.00 TOTAL CPU TIME=        0.1 (    0.0 MIN)
 TOTAL WALL CLOCK TIME=        0.1 SECONDS, CPU UTILIZATION IS  77.78%
 ...... END OF 2-ELECTRON GRADIENT ......
 CPU     0: STEP CPU TIME=     0.00 TOTAL CPU TIME=        0.1 (    0.0 MIN)
 TOTAL WALL CLOCK TIME=        0.1 SECONDS, CPU UTILIZATION IS  77.78%

          NSERCH=  9     ENERGY=     -74.9659012

                                 -----------------------
                                 GRADIENT (HARTREE/BOHR)
                                 -----------------------
        ATOM     ZNUC       DE/DX         DE/DY         DE/DZ
 --------------------------------------------------------------
    1  H            1.0     0.0000000    -0.0000003     0.0000008
    2  H            1.0     0.0000000     0.0000003     0.0000008
    3  O            8.0     0.0000000     0.0000000    -0.0000016

          MAXIMUM GRADIENT = 0.0000016    RMS GRADIENT = 0.0000007

 NSERCH:   9  E=      -74.9659012170  GRAD. MAX=  0.0000016  R.M.S.=  0.0000007

          HESSIAN UPDATED USING THE BFGS FORMULA
             ACTUAL ENERGY CHANGE WAS  -0.0000000016
          PREDICTED ENERGY CHANGE WAS  -0.0000000014 RATIO=  1.101
          MIN SEARCH, CORRECT HESSIAN, TRYING PURE NR STEP
               NR STEP HAS LENGTH         =   0.000005
          RADIUS OF STEP TAKEN=   0.00001  CURRENT TRUST RADIUS=   0.05000

 BEGINNING GEOMETRY SEARCH POINT NSERCH=  10 ...

 COORDINATES OF ALL ATOMS ARE (ANGS)
   ATOM   CHARGE       X              Y              Z
 ------------------------------------------------------------
 H           1.0   0.0000000000  -0.7580812310  -0.0452671121
 H           1.0  -0.0000000000   0.7580812310  -0.0452671121
 O           8.0  -0.0000000000  -0.0000000000   0.5905342241

          INTERNUCLEAR DISTANCES (ANGS.)
          ------------------------------

                1 H          2 H          3 O     

   1 H       0.0000000    1.5161625 *  0.9894092 *
   2 H       1.5161625 *  0.0000000    0.9894092 *
   3 O       0.9894092 *  0.9894092 *  0.0000000  

  * ... LESS THAN  3.000

 ...... END OF ONE-ELECTRON INTEGRALS ......
 CPU     0: STEP CPU TIME=     0.01 TOTAL CPU TIME=        0.1 (    0.0 MIN)
 TOTAL WALL CLOCK TIME=        0.1 SECONDS, CPU UTILIZATION IS  88.89%
 TOTAL NUMBER OF NONZERO TWO-ELECTRON INTEGRALS =                 228
          2 INTEGRAL RECORDS WERE STORED ON DISK FILE  8.
  ...... END OF TWO-ELECTRON INTEGRALS .....
 CPU     0: STEP CPU TIME=     0.00 TOTAL CPU TIME=        0.1 (    0.0 MIN)
 TOTAL WALL CLOCK TIME=        0.1 SECONDS, CPU UTILIZATION IS  88.89%

          --------------------------
                 RHF SCF CALCULATION
          --------------------------
     DENSITY MATRIX CONV=  1.00E-05

 ITER EX DEM     TOTAL ENERGY        E CHANGE  DENSITY CHANGE    DIIS ERROR
   1  0  0      -74.9659012171   -74.9659012171   0.000002731   0.000000000
   2  1  0      -74.9659012171    -0.0000000000   0.000001038   0.000000000
   3  2  0      -74.9659012171    -0.0000000000   0.000000475   0.000000000

          -----------------
          DENSITY CONVERGED
          -----------------
     TIME TO FORM FOCK OPERATORS=       0.0 SECONDS (       0.0 SEC/ITER)
     TIME TO SOLVE SCF EQUATIONS=       0.0 SECONDS (       0.0 SEC/ITER)

 FINAL RHF ENERGY IS      -74.9659012171 AFTER   3 ITERATIONS
 ...... END OF RHF CALCULATION ......
 CPU     0: STEP CPU TIME=     0.00 TOTAL CPU TIME=        0.1 (    0.0 MIN)
 TOTAL WALL CLOCK TIME=        0.1 SECONDS, CPU UTILIZATION IS  88.89%
 ..... END OF 1-ELECTRON GRADIENT ......
 CPU     0: STEP CPU TIME=     0.00 TOTAL CPU TIME=        0.1 (    0.0 MIN)
 TOTAL WALL CLOCK TIME=        0.1 SECONDS, CPU UTILIZATION IS  88.89%
 ...... END OF 2-ELECTRON GRADIENT ......
 CPU     0: STEP CPU TIME=     0.00 TOTAL CPU TIME=        0.1 (    0.0 MIN)
 TOTAL WALL CLOCK TIME=        0.1 SECONDS, CPU UTILIZATION IS  88.89%

          NSERCH= 10     ENERGY=     -74.9659012

                                 -----------------------
                                 GRADIENT (HARTREE/BOHR)
                                 -----------------------
        ATOM     ZNUC       DE/DX         DE/DY         DE/DZ
 --------------------------------------------------------------
    1  H            1.0     0.0000000    -0.0000001     0.0000003
    2  H            1.0     0.0000000     0.0000001     0.0000003
    3  O            8.0     0.0000000     0.0000000    -0.0000006

          MAXIMUM GRADIENT = 0.0000006    RMS GRADIENT = 0.0000003

 NSERCH:  10  E=      -74.9659012171  GRAD. MAX=  0.0000006  R.M.S.=  0.0000003

          HESSIAN UPDATED USING THE BFGS FORMULA
             ACTUAL ENERGY CHANGE WAS  -0.0000000000
          PREDICTED ENERGY CHANGE WAS  -0.0000000000 RATIO=  4.488
          MIN SEARCH, CORRECT HESSIAN, TRYING PURE NR STEP
               NR STEP HAS LENGTH         =   0.000003
          RADIUS OF STEP TAKEN=   0.00000  CURRENT TRUST RADIUS=   0.05000

 BEGINNING GEOMETRY SEARCH POINT NSERCH=  11 ...

 COORDINATES OF ALL ATOMS ARE (ANGS)
   ATOM   CHARGE       X              Y              Z
 ------------------------------------------------------------
 H           1.0   0.0000000000  -0.7580805603  -0.0452675428
 H           1.0  -0.0000000000   0.7580805603  -0.0452675428
 O           8.0  -0.0000000000   0.0000000000   0.5905350855

          INTERNUCLEAR DISTANCES (ANGS.)
          ------------------------------

                1 H          2 H          3 O     

   1 H       0.0000000    1.5161611 *  0.9894095 *
   2 H       1.5161611 *  0.0000000    0.9894095 *
   3 O       0.9894095 *  0.9894095 *  0.0000000  

  * ... LESS THAN  3.000

 ...... END OF ONE-ELECTRON INTEGRALS ......
 CPU     0: STEP CPU TIME=     0.00 TOTAL CPU TIME=        0.1 (    0.0 MIN)
 TOTAL WALL CLOCK TIME=        0.1 SECONDS, CPU UTILIZATION IS  88.89%
 TOTAL NUMBER OF NONZERO TWO-ELECTRON INTEGRALS =                 228
          2 INTEGRAL RECORDS WERE STORED ON DISK FILE  8.
  ...... END OF TWO-ELECTRON INTEGRALS .....
 CPU     0: STEP CPU TIME=     0.00 TOTAL CPU TIME=        0.1 (    0.0 MIN)
 TOTAL WALL CLOCK TIME=        0.1 SECONDS, CPU UTILIZATION IS  88.89%

          --------------------------
                 RHF SCF CALCULATION
          --------------------------
     DENSITY MATRIX CONV=  1.00E-05

 ITER EX DEM     TOTAL ENERGY        E CHANGE  DENSITY CHANGE    DIIS ERROR
   1  0  0      -74.9659012171   -74.9659012171   0.000000923   0.000000000
   2  1  0      -74.9659012171    -0.0000000000   0.000000322   0.000000000

          -----------------
          DENSITY CONVERGED
          -----------------
     TIME TO FORM FOCK OPERATORS=       0.0 SECONDS (       0.0 SEC/ITER)
     TIME TO SOLVE SCF EQUATIONS=       0.0 SECONDS (       0.0 SEC/ITER)

 FINAL RHF ENERGY IS      -74.9659012171 AFTER   2 ITERATIONS
 ...... END OF RHF CALCULATION ......
 CPU     0: STEP CPU TIME=     0.00 TOTAL CPU TIME=        0.1 (    0.0 MIN)
 TOTAL WALL CLOCK TIME=        0.1 SECONDS, CPU UTILIZATION IS  88.89%
 ..... END OF 1-ELECTRON GRADIENT ......
 CPU     0: STEP CPU TIME=     0.00 TOTAL CPU TIME=        0.1 (    0.0 MIN)
 TOTAL WALL CLOCK TIME=        0.1 SECONDS, CPU UTILIZATION IS  80.00%
 ...... END OF 2-ELECTRON GRADIENT ......
 CPU     0: STEP CPU TIME=     0.00 TOTAL CPU TIME=        0.1 (    0.0 MIN)
 TOTAL WALL CLOCK TIME=        0.1 SECONDS, CPU UTILIZATION IS  80.00%

          NSERCH= 11     ENERGY=     -74.9659012

                                 -----------------------
                                 GRADIENT (HARTREE/BOHR)
                                 -----------------------
        ATOM     ZNUC       DE/DX         DE/DY         DE/DZ
 --------------------------------------------------------------
    1  H            1.0     0.0000000     0.0000000    -0.0000002
    2  H            1.0     0.0000000    -0.0000000    -0.0000002
    3  O            8.0     0.0000000     0.0000000     0.0000003

          MAXIMUM GRADIENT = 0.0000003    RMS GRADIENT = 0.0000001

 NSERCH:  11  E=      -74.9659012171  GRAD. MAX=  0.0000003  R.M.S.=  0.0000001

          HESSIAN UPDATED USING THE BFGS FORMULA
             ACTUAL ENERGY CHANGE WAS  -0.0000000000
          PREDICTED ENERGY CHANGE WAS  -0.0000000000 RATIO=  0.894
          MIN SEARCH, CORRECT HESSIAN, TRYING PURE NR STEP
               NR STEP HAS LENGTH         =   0.000001
          RADIUS OF STEP TAKEN=   0.00000  CURRENT TRUST RADIUS=   0.05000

 BEGINNING GEOMETRY SEARCH POINT NSERCH=  12 ...

 COORDINATES OF ALL ATOMS ARE (ANGS)
   ATOM   CHARGE       X              Y              Z
 ------------------------------------------------------------
 H           1.0   0.0000000000  -0.7580807787  -0.0452673965
 H           1.0  -0.0000000000   0.7580807787  -0.0452673965
 O           8.0  -0.0000000000  -0.0000000000   0.5905347930

          INTERNUCLEAR DISTANCES (ANGS.)
          ------------------------------

                1 H          2 H          3 O     

   1 H       0.0000000    1.5161616 *  0.9894094 *
   2 H       1.5161616 *  0.0000000    0.9894094 *
   3 O       0.9894094 *  0.9894094 *  0.0000000  

  * ... LESS THAN  3.000

 ...... END OF ONE-ELECTRON INTEGRALS ......
 CPU     0: STEP CPU TIME=     0.00 TOTAL CPU TIME=        0.1 (    0.0 MIN)
 TOTAL WALL CLOCK TIME=        0.1 SECONDS, CPU UTILIZATION IS  80.00%
 TOTAL NUMBER OF NONZERO TWO-ELECTRON INTEGRALS =                 228
          2 INTEGRAL RECORDS WERE STORED ON DISK FILE  8.
  ...... END OF TWO-ELECTRON INTEGRALS .....
 CPU     0: STEP CPU TIME=     0.00 TOTAL CPU TIME=        0.1 (    0.0 MIN)
 TOTAL WALL CLOCK TIME=        0.1 SECONDS, CPU UTILIZATION IS  80.00%

          --------------------------
                 RHF SCF CALCULATION
          --------------------------
     DENSITY MATRIX CONV=  1.00E-05

 ITER EX DEM     TOTAL ENERGY        E CHANGE  DENSITY CHANGE    DIIS ERROR
   1  0  0      -74.9659012171   -74.9659012171   0.000000102   0.000000000
   2  1  0      -74.9659012171     0.0000000000   0.000000026   0.000000000

          -----------------
          DENSITY CONVERGED
          -----------------
     TIME TO FORM FOCK OPERATORS=       0.0 SECONDS (       0.0 SEC/ITER)
     TIME TO SOLVE SCF EQUATIONS=       0.0 SECONDS (       0.0 SEC/ITER)

 FINAL RHF ENERGY IS      -74.9659012171 AFTER   2 ITERATIONS
 ...... END OF RHF CALCULATION ......
 CPU     0: STEP CPU TIME=     0.00 TOTAL CPU TIME=        0.1 (    0.0 MIN)
 TOTAL WALL CLOCK TIME=        0.1 SECONDS, CPU UTILIZATION IS  80.00%
 ..... END OF 1-ELECTRON GRADIENT ......
 CPU     0: STEP CPU TIME=     0.00 TOTAL CPU TIME=        0.1 (    0.0 MIN)
 TOTAL WALL CLOCK TIME=        0.1 SECONDS, CPU UTILIZATION IS  80.00%
 ...... END OF 2-ELECTRON GRADIENT ......
 CPU     0: STEP CPU TIME=     0.00 TOTAL CPU TIME=        0.1 (    0.0 MIN)
 TOTAL WALL CLOCK TIME=        0.1 SECONDS, CPU UTILIZATION IS  80.00%

          NSERCH= 12     ENERGY=     -74.9659012

                                 -----------------------
                                 GRADIENT (HARTREE/BOHR)
                                 -----------------------
        ATOM     ZNUC       DE/DX         DE/DY         DE/DZ
 --------------------------------------------------------------
    1  H            1.0     0.0000000     0.0000000     0.0000000
    2  H            1.0     0.0000000     0.0000000     0.0000000
    3  O            8.0     0.0000000     0.0000000    -0.0000001

          MAXIMUM GRADIENT = 0.0000001    RMS GRADIENT = 0.0000000

 NSERCH:  12  E=      -74.9659012171  GRAD. MAX=  0.0000001  R.M.S.=  0.0000000

          HESSIAN UPDATED USING THE BFGS FORMULA
             ACTUAL ENERGY CHANGE WAS  -0.0000000000
          PREDICTED ENERGY CHANGE WAS  -0.0000000000 RATIO=  1.166
          MIN SEARCH, CORRECT HESSIAN, TRYING PURE NR STEP
               NR STEP HAS LENGTH         =   0.000000
          RADIUS OF STEP TAKEN=   0.00000  CURRENT TRUST RADIUS=   0.05000

 BEGINNING GEOMETRY SEARCH POINT NSERCH=  13 ...

 COORDINATES OF ALL ATOMS ARE (ANGS)
   ATOM   CHARGE       X              Y              Z
 ------------------------------------------------------------
 H           1.0   0.0000000000  -0.7580807390  -0.0452674254
 H           1.0  -0.0000000000   0.7580807390  -0.0452674254
 O           8.0  -0.0000000000  -0.0000000000   0.5905348508

          INTERNUCLEAR DISTANCES (ANGS.)
          ------------------------------

                1 H          2 H          3 O     

   1 H       0.0000000    1.5161615 *  0.9894094 *
   2 H       1.5161615 *  0.0000000    0.9894094 *
   3 O       0.9894094 *  0.9894094 *  0.0000000  

  * ... LESS THAN  3.000

 ...... END OF ONE-ELECTRON INTEGRALS ......
 CPU     0: STEP CPU TIME=     0.00 TOTAL CPU TIME=        0.1 (    0.0 MIN)
 TOTAL WALL CLOCK TIME=        0.1 SECONDS, CPU UTILIZATION IS  80.00%
 TOTAL NUMBER OF NONZERO TWO-ELECTRON INTEGRALS =                 228
          2 INTEGRAL RECORDS WERE STORED ON DISK FILE  8.
  ...... END OF TWO-ELECTRON INTEGRALS .....
 CPU     0: STEP CPU TIME=     0.00 TOTAL CPU TIME=        0.1 (    0.0 MIN)
 TOTAL WALL CLOCK TIME=        0.1 SECONDS, CPU UTILIZATION IS  80.00%

          --------------------------
                 RHF SCF CALCULATION
          --------------------------
     DENSITY MATRIX CONV=  1.00E-05

 ITER EX DEM     TOTAL ENERGY        E CHANGE  DENSITY CHANGE    DIIS ERROR
   1  0  0      -74.9659012171   -74.9659012171   0.000000042   0.000000000
   2  1  0      -74.9659012171     0.0000000000   0.000000013   0.000000000

          -----------------
          DENSITY CONVERGED
          -----------------
     TIME TO FORM FOCK OPERATORS=       0.0 SECONDS (       0.0 SEC/ITER)
     TIME TO SOLVE SCF EQUATIONS=       0.0 SECONDS (       0.0 SEC/ITER)

 FINAL RHF ENERGY IS      -74.9659012171 AFTER   2 ITERATIONS
 ...... END OF RHF CALCULATION ......
 CPU     0: STEP CPU TIME=     0.00 TOTAL CPU TIME=        0.1 (    0.0 MIN)
 TOTAL WALL CLOCK TIME=        0.1 SECONDS, CPU UTILIZATION IS  80.00%
 ..... END OF 1-ELECTRON GRADIENT ......
 CPU     0: STEP CPU TIME=     0.00 TOTAL CPU TIME=        0.1 (    0.0 MIN)
 TOTAL WALL CLOCK TIME=        0.1 SECONDS, CPU UTILIZATION IS  80.00%
 ...... END OF 2-ELECTRON GRADIENT ......
 CPU     0: STEP CPU TIME=     0.00 TOTAL CPU TIME=        0.1 (    0.0 MIN)
 TOTAL WALL CLOCK TIME=        0.1 SECONDS, CPU UTILIZATION IS  80.00%

          NSERCH= 13     ENERGY=     -74.9659012

                                 -----------------------
                                 GRADIENT (HARTREE/BOHR)
                                 -----------------------
        ATOM     ZNUC       DE/DX         DE/DY         DE/DZ
 --------------------------------------------------------------
    1  H            1.0     0.0000000     0.0000000     0.0000000
    2  H            1.0     0.0000000     0.0000000     0.0000000
    3  O            8.0     0.0000000     0.0000000     0.0000000

          MAXIMUM GRADIENT = 0.0000000    RMS GRADIENT = 0.0000000

 NSERCH:  13  E=      -74.9659012171  GRAD. MAX=  0.0000000  R.M.S.=  0.0000000


      ***** EQUILIBRIUM GEOMETRY LOCATED *****
 COORDINATES OF ALL ATOMS ARE (ANGS)
   ATOM   CHARGE       X              Y              Z
 ------------------------------------------------------------
 H           1.0   0.0000000000  -0.7580807390  -0.0452674254
 H           1.0  -0.0000000000   0.7580807390  -0.0452674254
 O           8.0  -0.0000000000  -0.0000000000   0.5905348508

          INTERNUCLEAR DISTANCES (ANGS.)
          ------------------------------

                1 H          2 H          3 O     

   1 H       0.0000000    1.5161615 *  0.9894094 *
   2 H       1.5161615 *  0.0000000    0.9894094 *
   3 O       0.9894094 *  0.9894094 *  0.0000000  

  * ... LESS THAN  3.000


          NUCLEAR ENERGY    =        8.9064890925
          ELECTRONIC ENERGY =      -83.8723903095
          TOTAL ENERGY      =      -74.9659012171

          ------------------
          MOLECULAR ORBITALS
          ------------------

                      1          2          3          4          5
                  -20.2516    -1.2575    -0.5939    -0.4597    -0.3926
                     A          A          A          A          A   
    1  H  1  S    0.005584   0.155594  -0.449222   0.295103   0.000000
    2  H  2  S    0.005584   0.155594   0.449222   0.295103   0.000000
    3  O  3  S   -0.994216  -0.233766   0.000000   0.104036   0.000000
    4  O  3  S   -0.025847   0.844449   0.000000  -0.538167   0.000000
    5  O  3  X    0.000000   0.000000   0.000000   0.000000  -1.000000
    6  O  3  Y    0.000000   0.000000   0.612696   0.000000   0.000000
    7  O  3  Z    0.004164  -0.122838   0.000000  -0.755877   0.000000

                      6          7
                    0.5818     0.6927
                     A          A   
    1  H  1  S    0.769164  -0.814647
    2  H  2  S    0.769164   0.814647
    3  O  3  S    0.125820   0.000000
    4  O  3  S   -0.820145   0.000000
    5  O  3  X    0.000000   0.000000
    6  O  3  Y    0.000000  -0.959803
    7  O  3  Z    0.763552   0.000000

     ----------------------------------------------------------------
     PROPERTY VALUES FOR THE RHF   SELF-CONSISTENT FIELD WAVEFUNCTION
     ----------------------------------------------------------------

          -----------------
          ENERGY COMPONENTS
          -----------------

         WAVEFUNCTION NORMALIZATION =       1.0000000000

                ONE ELECTRON ENERGY =    -121.8341246038
                TWO ELECTRON ENERGY =      37.9617342943
           NUCLEAR REPULSION ENERGY =       8.9064890925
                                      ------------------
                       TOTAL ENERGY =     -74.9659012171

 ELECTRON-ELECTRON POTENTIAL ENERGY =      37.9617342943
  NUCLEUS-ELECTRON POTENTIAL ENERGY =    -196.3527341158
   NUCLEUS-NUCLEUS POTENTIAL ENERGY =       8.9064890925
                                      ------------------
             TOTAL POTENTIAL ENERGY =    -149.4845107290
               TOTAL KINETIC ENERGY =      74.5186095120
                 VIRIAL RATIO (V/T) =       2.0060024161

  ...... PI ENERGY ANALYSIS ......

 ENERGY ANALYSIS:
            FOCK ENERGY=    -45.9106560220
          BARE H ENERGY=   -121.8341246038
     ELECTRONIC ENERGY =    -83.8723903129
         KINETIC ENERGY=     74.5186095120
          N-N REPULSION=      8.9064890925
           TOTAL ENERGY=    -74.9659012205
        SIGMA PART(1+2)=    -76.0490466308
               (K,V1,2)=     69.4611470599   -176.4338183689     30.9236246781
           PI PART(1+2)=     -7.8233436821
               (K,V1,2)=      5.0574624520    -19.9189157470      7.0381096128
  SIGMA SKELETON, ERROR=    -67.1425575383     -0.0000000000
             MIXED PART= 0.00000E+00 0.00000E+00 0.00000E+00 0.00000E+00
 ...... END OF PI ENERGY ANALYSIS ......

          ---------------------------------------
          MULLIKEN AND LOWDIN POPULATION ANALYSES
          ---------------------------------------

     ATOMIC MULLIKEN POPULATION IN EACH MOLECULAR ORBITAL

                      1          2          3          4          5

                  2.000000   2.000000   2.000000   2.000000   2.000000

    1            -0.000620   0.185595   0.463470   0.186289   0.000000
    2            -0.000620   0.185595   0.463470   0.186289   0.000000
    3             2.001239   1.628810   1.073060   1.627421   2.000000

               ----- POPULATIONS IN EACH AO -----
                             MULLIKEN      LOWDIN
              1  H  1  S      0.83474     0.88422
              2  H  2  S      0.83474     0.88422
              3  O  3  S      1.99784     1.99629
              4  O  3  S      1.84893     1.71140
              5  O  3  X      2.00000     2.00000
              6  O  3  Y      1.07306     1.10075
              7  O  3  Z      1.41071     1.42311

          ----- MULLIKEN ATOMIC OVERLAP POPULATIONS -----
          (OFF-DIAGONAL ELEMENTS NEED TO BE MULTIPLIED BY 2)

             1           2           3

    1    0.6262534
    2   -0.0453998   0.6262534
    3    0.2538815   0.2538815   7.8227670

          TOTAL MULLIKEN AND LOWDIN ATOMIC POPULATIONS
       ATOM         MULL.POP.    CHARGE          LOW.POP.     CHARGE
    1 H             0.834735    0.165265         0.884224    0.115776
    2 H             0.834735    0.165265         0.884224    0.115776
    3 O             8.330530   -0.330530         8.231553   -0.231553

          -------------------------------
          BOND ORDER AND VALENCE ANALYSIS     BOND ORDER THRESHOLD=0.050
          -------------------------------

                   BOND                       BOND                       BOND
  ATOM PAIR DIST  ORDER      ATOM PAIR DIST  ORDER      ATOM PAIR DIST  ORDER
    1   3  0.989  0.964        2   3  0.989  0.964

                       TOTAL       BONDED        FREE
      ATOM            VALENCE     VALENCE     VALENCE
    1 H                 0.973       0.973       0.000
    2 H                 0.973       0.973      -0.000
    3 O                 1.928       1.928       0.000

          ---------------------
          ELECTROSTATIC MOMENTS
          ---------------------

 POINT   1           X           Y           Z (BOHR)    CHARGE
                -0.000000   -0.000000    0.981484        0.00 (A.U.)
         DX          DY          DZ         /D/  (DEBYE)
     0.000000   -0.000000   -1.709221    1.709221
 ...... END OF PROPERTY EVALUATION ......
 CPU     0: STEP CPU TIME=     0.00 TOTAL CPU TIME=        0.1 (    0.0 MIN)
 TOTAL WALL CLOCK TIME=        0.1 SECONDS, CPU UTILIZATION IS  80.00%
  $VIB   
          IVIB=   0 IATOM=   0 ICOORD=   0 E=      -74.9659012171
  0.000000000E+00 0.000000000E+00 0.000000000E+00 0.000000000E+00 0.000000000E+00
  0.000000000E+00 0.000000000E+00 0.000000000E+00 0.000000000E+00
  3.433858796E-16-1.414901445E-11-1.709220896E+00
 ......END OF GEOMETRY SEARCH......
 CPU     0: STEP CPU TIME=     0.00 TOTAL CPU TIME=        0.1 (    0.0 MIN)
 TOTAL WALL CLOCK TIME=        0.1 SECONDS, CPU UTILIZATION IS  80.00%
               580000  WORDS OF DYNAMIC MEMORY USED
 EXECUTION OF GAMESS TERMINATED NORMALLY Sun Mar  6 21:49:02 2016
 DDI: 263640 bytes (0.3 MB / 0 MWords) used by master data server.

 ----------------------------------------
 CPU timing information for all processes
 ========================================
 0: 0.39 + 0.56 = 0.95
 1: 0.28 + 0.33 = 0.62
 ----------------------------------------
 ddikick.x: exited gracefully.
----- accounting info -----
Files used on the master node Clevo were:
-rw-r--r-- 1 sagar sagar   26065 Mar  6 21:49 /tmp/H2O_RHF_STO3G.dat
-rw-r--r-- 1 sagar sagar     184 Mar  6 21:49 /tmp/H2O_RHF_STO3G.F05
-rw-r--r-- 1 sagar sagar  180016 Mar  6 21:49 /tmp/H2O_RHF_STO3G.F08
-rw-r--r-- 1 sagar sagar  180016 Mar  6 21:49 /tmp/H2O_RHF_STO3G.F08.001
-rw-r--r-- 1 sagar sagar 1668720 Mar  6 21:49 /tmp/H2O_RHF_STO3G.F10
Sun Mar  6 21:49:05 WET 2016
0.075u 0.040s 0:03.22 3.4%	0+0k 176+16io 0pf+0w
