----- GAMESS execution script 'rungms' -----
This job is running on host Clevo
under operating system Linux at Sun Mar 6 22:03:35 WET 2016
Available scratch disk space (Kbyte units) at beginning of the job is
Filesystem                                             1K-blocks     Used Available Use% Mounted on
/dev/disk/by-uuid/c2905ecd-da6a-4deb-abcc-9980c215dfc9  34319120 18791868  13760852  58% /
GAMESS temporary binary files will be written to /tmp
GAMESS supplementary output files will be written to .
Copying input file H2O_RHF_ccpVTZ.inp to your run's scratch directory...

 Distributed Data Interface kickoff program.
 Initiating 2 compute processes on 1 nodes to run the following command:
 /home/sagar/gamess/gamess.01.x H2O_RHF_ccpVTZ 

          ******************************************************
          *         GAMESS VERSION =  5 DEC 2014 (R1)          *
          *             FROM IOWA STATE UNIVERSITY             *
          * M.W.SCHMIDT, K.K.BALDRIDGE, J.A.BOATZ, S.T.ELBERT, *
          *   M.S.GORDON, J.H.JENSEN, S.KOSEKI, N.MATSUNAGA,   *
          *          K.A.NGUYEN, S.J.SU, T.L.WINDUS,           *
          *       TOGETHER WITH M.DUPUIS, J.A.MONTGOMERY       *
          *         J.COMPUT.CHEM.  14, 1347-1363(1993)        *
          **************** 64 BIT LINUX VERSION ****************

  SINCE 1993, STUDENTS AND POSTDOCS WORKING AT IOWA STATE UNIVERSITY
  AND ALSO IN THEIR VARIOUS JOBS AFTER LEAVING ISU HAVE MADE IMPORTANT
  CONTRIBUTIONS TO THE CODE:
     IVANA ADAMOVIC, CHRISTINE AIKENS, YURI ALEXEEV, POOJA ARORA,
     ANDREY ASADCHEV, ROB BELL, PRADIPTA BANDYOPADHYAY, JONATHAN BENTZ,
     BRETT BODE, KURT BRORSEN, CALEB CARLIN, GALINA CHABAN, WEI CHEN,
     CHEOL HO CHOI, PAUL DAY, ALBERT DEFUSCO, NUWAN DESILVA, TIM DUDLEY,
     DMITRI FEDOROV, GRAHAM FLETCHER, MARK FREITAG, KURT GLAESEMANN,
     DAN KEMP, GRANT MERRILL, NORIYUKI MINEZAWA, JONATHAN MULLIN,
     TAKESHI NAGATA, SEAN NEDD, HEATHER NETZLOFF, BOSILJKA NJEGIC, RYAN OLSON,
     MIKE PAK, SPENCER PRUITT, LUKE ROSKOP, JIM SHOEMAKER, LYUDMILA SLIPCHENKO,
     TONY SMITH, SAROM SOK, JIE SONG, TETSUYA TAKETSUGU, SIMON WEBB,
     PENG XU, SOOHAENG YOO, FEDERICO ZAHARIEV

  ADDITIONAL CODE HAS BEEN PROVIDED BY COLLABORATORS IN OTHER GROUPS:
     IOWA STATE UNIVERSITY:
          JOE IVANIC, AARON WEST, LAIMUTIS BYTAUTAS, KLAUS RUEDENBERG
     UNIVERSITY OF TOKYO: KIMIHIKO HIRAO, TAKAHITO NAKAJIMA,
          TAKAO TSUNEDA, MUNEAKI KAMIYA, SUSUMU YANAGISAWA,
          KIYOSHI YAGI, MAHITO CHIBA, SEIKEN TOKURA, NAOAKI KAWAKAMI
     UNIVERSITY OF AARHUS: FRANK JENSEN
     UNIVERSITY OF IOWA: VISVALDAS KAIRYS, HUI LI
     NATIONAL INST. OF STANDARDS AND TECHNOLOGY: WALT STEVENS, DAVID GARMER
     UNIVERSITY OF PISA: BENEDETTA MENNUCCI, JACOPO TOMASI
     UNIVERSITY OF MEMPHIS: HENRY KURTZ, PRAKASHAN KORAMBATH
     UNIVERSITY OF ALBERTA: TOBY ZENG, MARIUSZ KLOBUKOWSKI
     UNIVERSITY OF NEW ENGLAND: MARK SPACKMAN
     MIE UNIVERSITY: HIROAKI UMEDA
     NAT. INST. OF ADVANCED INDUSTRIAL SCIENCE AND TECHNOLOGY: KAZUO KITAURA
     MICHIGAN STATE UNIVERSITY:
          KAROL KOWALSKI, MARTA WLOCH, JEFFREY GOUR, JESSE LUTZ,
          WEI LI, PIOTR PIECUCH
     UNIVERSITY OF SILESIA: MONIKA MUSIAL, STANISLAW KUCHARSKI
     FACULTES UNIVERSITAIRES NOTRE-DAME DE LA PAIX:
          OLIVIER QUINET, BENOIT CHAMPAGNE
     UNIVERSITY OF CALIFORNIA - SANTA BARBARA: BERNARD KIRTMAN
     INSTITUTE FOR MOLECULAR SCIENCE:
          KAZUYA ISHIMURA, MICHIO KATOUDA, AND SHIGERU NAGASE
     UNIVERSITY OF NOTRE DAME: ANNA POMOGAEVA, DAN CHIPMAN
     KYUSHU UNIVERSITY:
          HARUYUKI NAKANO,
          FENG LONG GU, JACEK KORCHOWIEC, MARCIN MAKOWSKI, AND YURIKO AOKI,
          HIROTOSHI MORI AND EISAKU MIYOSHI
     PENNSYLVANIA STATE UNIVERSITY:
          TZVETELIN IORDANOV, CHET SWALINA, JONATHAN SKONE,
          SHARON HAMMES-SCHIFFER
     WASEDA UNIVERSITY:
          MASATO KOBAYASHI, TOMOKO AKAMA, TSUGUKI TOUMA,
          TAKESHI YOSHIKAWA, YASUHIRO IKABATA, HIROMI NAKAI
     NANJING UNIVERSITY: SHUHUA LI
     UNIVERSITY OF NEBRASKA:
          PEIFENG SU, DEJUN SI, NANDUN THELLAMUREGE, YALI WANG, HUI LI
     UNIVERSITY OF ZURICH: ROBERTO PEVERATI, KIM BALDRIDGE
     N. COPERNICUS UNIVERSITY AND JACKSON STATE UNIVERSITY:
          MARIA BARYSZ
     UNIVERSITY OF COPENHAGEN: CASPER STEINMANN
     TOKYO INSTITUTE OF TECHNOLOGY: HIROYA NAKATA
     NAGOYA UNIVERSITY: YOSHIO NISHIMOTO, STEPHAN IRLE


 PARALLEL VERSION RUNNING ON        2 PROCESSORS IN        1 NODES.

 EXECUTION OF GAMESS BEGUN Sun Mar  6 22:03:35 2016

            ECHO OF THE FIRST FEW INPUT CARDS -
 INPUT CARD> $CONTRL SCFTYP=RHF RUNTYP=OPTIMIZE ISPHER=1 $END                               
 INPUT CARD> $STATPT OPTTOL=1E-12 NSTEP=1000 $END                                           
 INPUT CARD> $BASIS GBASIS=CCT $END                                                         
 INPUT CARD> $DATA                                                                          
 INPUT CARD>H2O                                                                             
 INPUT CARD>C1                                                                              
 INPUT CARD> H 1 0.0 -1.0 0.0                                                               
 INPUT CARD> H 1 0.0 1.0 0.0                                                                
 INPUT CARD> O 8 0.0 0.0 0.5                                                                
 INPUT CARD> $END                                                                           
    1000000 WORDS OF MEMORY AVAILABLE

     BASIS OPTIONS
     -------------
     GBASIS=CCT          IGAUSS=       0      POLAR=NONE    
     NDFUNC=       0     NFFUNC=       0     DIFFSP=       F
     NPFUNC=       0      DIFFS=       F     BASNAM=        


     RUN TITLE
     ---------
 H2O                                                                             

 THE POINT GROUP OF THE MOLECULE IS C1      
 THE ORDER OF THE PRINCIPAL AXIS IS     0

 ATOM      ATOMIC                      COORDINATES (BOHR)
           CHARGE         X                   Y                   Z
 H           1.0     0.0000000000       -1.8897259877        0.0000000000
 H           1.0     0.0000000000        1.8897259877        0.0000000000
 O           8.0     0.0000000000        0.0000000000        0.9448629939

          INTERNUCLEAR DISTANCES (ANGS.)
          ------------------------------

                1 H          2 H          3 O     

   1 H       0.0000000    2.0000000 *  1.1180340 *
   2 H       2.0000000 *  0.0000000    1.1180340 *
   3 O       1.1180340 *  1.1180340 *  0.0000000  

  * ... LESS THAN  3.000


     ATOMIC BASIS SET
     ----------------
 THE CONTRACTED PRIMITIVE FUNCTIONS HAVE BEEN UNNORMALIZED
 THE CONTRACTED BASIS FUNCTIONS ARE NOW NORMALIZED TO UNITY

  SHELL TYPE  PRIMITIVE        EXPONENT          CONTRACTION COEFFICIENT(S)

 H         

      1   S       1            33.8700000    0.025494863235
      1   S       2             5.0950000    0.190362765893
      1   S       3             1.1590000    0.852162022245

      2   S       4             0.3258000    1.000000000000

      3   S       5             0.1027000    1.000000000000

      4   P       6             1.4070000    1.000000000000

      5   P       7             0.3880000    1.000000000000

      6   D       8             1.0570000    1.000000000000

 H         

      7   S       9            33.8700000    0.025494863235
      7   S      10             5.0950000    0.190362765893
      7   S      11             1.1590000    0.852162022245

      8   S      12             0.3258000    1.000000000000

      9   S      13             0.1027000    1.000000000000

     10   P      14             1.4070000    1.000000000000

     11   P      15             0.3880000    1.000000000000

     12   D      16             1.0570000    1.000000000000

 O         

     13   S      17         15330.0000000    0.000520198307
     13   S      18          2299.0000000    0.004023344781
     13   S      19           522.4000000    0.020729083329
     13   S      20           147.3000000    0.081082327080
     13   S      21            47.5500000    0.236226352118
     13   S      22            16.7600000    0.443518209420
     13   S      23             6.2070000    0.358670588689
     13   S      24             0.6882000   -0.008349797237

     14   S      25         15330.0000000   -0.000197236012
     14   S      26          2299.0000000   -0.001535010700
     14   S      27           522.4000000   -0.007951183914
     14   S      28           147.3000000   -0.032113452892
     14   S      29            47.5500000   -0.100269643049
     14   S      30            16.7600000   -0.234047111838
     14   S      31             6.2070000   -0.301410927756
     14   S      32             0.6882000    1.034919649508

     15   S      33             1.7520000    1.000000000000

     16   S      34             0.2384000    1.000000000000

     17   P      35            34.4600000    0.041163489568
     17   P      36             7.7490000    0.257762835858
     17   P      37             2.2800000    0.802419274427

     18   P      38             0.7156000    1.000000000000

     19   P      39             0.2140000    1.000000000000

     20   D      40             2.3140000    1.000000000000

     21   D      41             0.6450000    1.000000000000

     22   F      42             1.4280000    1.000000000000

 TOTAL NUMBER OF BASIS SET SHELLS             =   22
 NUMBER OF CARTESIAN GAUSSIAN BASIS FUNCTIONS =   65
 NOTE: THIS RUN WILL RESTRICT THE MO VARIATION SPACE TO SPHERICAL HARMONICS.
 THE NUMBER OF ORBITALS KEPT IN THE VARIATIONAL SPACE WILL BE PRINTED LATER.
 NUMBER OF ELECTRONS                          =   10
 CHARGE OF MOLECULE                           =    0
 SPIN MULTIPLICITY                            =    1
 NUMBER OF OCCUPIED ORBITALS (ALPHA)          =    5
 NUMBER OF OCCUPIED ORBITALS (BETA )          =    5
 TOTAL NUMBER OF ATOMS                        =    3
 THE NUCLEAR REPULSION ENERGY IS        7.8375569539

     $CONTRL OPTIONS
     ---------------
 SCFTYP=RHF          RUNTYP=OPTIMIZE     EXETYP=RUN     
 MPLEVL=       0     CITYP =NONE         CCTYP =NONE         VBTYP =NONE    
 DFTTYP=NONE         TDDFT =NONE    
 MULT  =       1     ICHARG=       0     NZVAR =       0     COORD =UNIQUE  
 PP    =NONE         RELWFN=NONE         LOCAL =NONE         NUMGRD=       F
 ISPHER=       1     NOSYM =       0     MAXIT =      30     UNITS =ANGS    
 PLTORB=       F     MOLPLT=       F     AIMPAC=       F     FRIEND=        
 NPRINT=       7     IREST =       0     GEOM  =INPUT   
 NORMF =       0     NORMP =       0     ITOL  =      20     ICUT  =       9
 INTTYP=BEST         GRDTYP=BEST         QMTTOL= 1.0E-06

     $SYSTEM OPTIONS
     ---------------
  REPLICATED MEMORY=     1000000 WORDS (ON EVERY NODE).
 DISTRIBUTED MEMDDI=           0 MILLION WORDS IN AGGREGATE,
 MEMDDI DISTRIBUTED OVER   2 PROCESSORS IS           0 WORDS/PROCESSOR.
 TOTAL MEMORY REQUESTED ON EACH PROCESSOR=     1000000 WORDS.
 TIMLIM=      525600.00 MINUTES, OR     365.0 DAYS.
 PARALL= T  BALTYP=  DLB     KDIAG=    0  COREFL= F
 MXSEQ2=     300 MXSEQ3=     150  mem10=         0

          ----------------
          PROPERTIES INPUT
          ----------------

     MOMENTS            FIELD           POTENTIAL          DENSITY
 IEMOM =       1   IEFLD =       0   IEPOT =       0   IEDEN =       0
 WHERE =COMASS     WHERE =NUCLEI     WHERE =NUCLEI     WHERE =NUCLEI  
 OUTPUT=BOTH       OUTPUT=BOTH       OUTPUT=BOTH       OUTPUT=BOTH    
 IEMINT=       0   IEFINT=       0                     IEDINT=       0
                                                       MORB  =       0
          EXTRAPOLATION IN EFFECT
          SOSCF IN EFFECT
 ORBITAL PRINTING OPTION: NPREO=     1    65     2     1

     -------------------------------
     INTEGRAL TRANSFORMATION OPTIONS
     -------------------------------
     NWORD  =            0
     CUTOFF = 1.0E-09     MPTRAN =       0
     DIRTRF =       F     AOINTS =DUP     

          ----------------------
          INTEGRAL INPUT OPTIONS
          ----------------------
 NOPK  =       1 NORDER=       0 SCHWRZ=       F

     ------------------------------------------
     THE POINT GROUP IS C1 , NAXIS= 0, ORDER= 1
     ------------------------------------------

 -- VARIATIONAL SPACE WILL BE RESTRICTED TO PURE SPHERICAL HARMONICS ONLY --
 AFTER EXCLUDING CONTAMINANT COMBINATIONS FROM THE CARTESIAN GAUSSIAN BASIS
 SET, THE NUMBER OF SPHERICAL HARMONICS KEPT IN THE VARIATION SPACE IS   58

     DIMENSIONS OF THE SYMMETRY SUBSPACES ARE
 A   =   58

 ..... DONE SETTING UP THE RUN .....
 CPU     0: STEP CPU TIME=     0.01 TOTAL CPU TIME=        0.0 (    0.0 MIN)
 TOTAL WALL CLOCK TIME=        0.0 SECONDS, CPU UTILIZATION IS  50.00%


          -----------------------------
          STATIONARY POINT LOCATION RUN
          -----------------------------

 OBTAINING INITIAL HESSIAN, HESS=GUESS   
 CARTESIAN COORDINATE OPTIMIZATION USING BADGER'S RULE FORCE CONSTANT GUESS

          PARAMETERS CONTROLLING GEOMETRY SEARCH ARE
          METHOD =QA                  UPHESS =BFGS    
          NNEG   =         0          NFRZ   =         0
          NSTEP  =      1000          IFOLOW =         1
          HESS   =GUESS               RESTAR =         F
          IHREP  =         0          HSSEND =         F
          NPRT   =         0          NPUN   =         0
          OPTTOL = 1.000E-12          RMIN   = 1.500E-03
          RMAX   = 1.000E-01          RLIM   = 7.000E-02
          DXMAX  = 3.000E-01          PURIFY =         F
          MOVIE  =         F          TRUPD  =         T
          TRMAX  = 5.000E-01          TRMIN  = 5.000E-02
          ITBMAT =         5          STPT   =         F
          STSTEP = 1.000E-02          PROJCT=          T

 BEGINNING GEOMETRY SEARCH POINT NSERCH=   0 ...

 COORDINATES OF ALL ATOMS ARE (ANGS)
   ATOM   CHARGE       X              Y              Z
 ------------------------------------------------------------
 H           1.0   0.0000000000  -1.0000000000   0.0000000000
 H           1.0   0.0000000000   1.0000000000   0.0000000000
 O           8.0   0.0000000000   0.0000000000   0.5000000000

          ********************
          1 ELECTRON INTEGRALS
          ********************
 ...... END OF ONE-ELECTRON INTEGRALS ......
 CPU     0: STEP CPU TIME=     0.00 TOTAL CPU TIME=        0.0 (    0.0 MIN)
 TOTAL WALL CLOCK TIME=        0.0 SECONDS, CPU UTILIZATION IS  33.33%

          -------------
          GUESS OPTIONS
          -------------
          GUESS =HUCKEL            NORB  =       0          NORDER=       0
          MIX   =       F          PRTMO =       F          PUNMO =       F
          TOLZ  = 1.0E-08          TOLE  = 1.0E-05
          SYMDEN=       F          PURIFY=       F

 INITIAL GUESS ORBITALS GENERATED BY HUCKEL   ROUTINE.
 HUCKEL GUESS REQUIRES     33019 WORDS.

 STATISTICS FOR GENERATION OF SYMMETRY ORBITAL -Q- MATRIX
 NUMBER OF CARTESIAN ATOMIC ORBITALS=         65
 NUMBER OF SPHERICAL CONTAMINANTS DROPPED=     7
 NUMBER OF LINEARLY DEPENDENT MOS DROPPED=     0
 TOTAL NUMBER OF MOS IN VARIATION SPACE=      58

 SYMMETRIES FOR INITIAL GUESS ORBITALS FOLLOW.   BOTH SET(S).
     5 ORBITALS ARE OCCUPIED (    1 CORE ORBITALS).
     2=A        3=A        4=A        5=A        6=A        7=A        8=A   
     9=A       10=A       11=A       12=A       13=A       14=A       15=A   
 ...... END OF INITIAL ORBITAL SELECTION ......
 CPU     0: STEP CPU TIME=     0.01 TOTAL CPU TIME=        0.0 (    0.0 MIN)
 TOTAL WALL CLOCK TIME=        0.0 SECONDS, CPU UTILIZATION IS  50.00%

                    ----------------------
                    AO INTEGRAL TECHNOLOGY
                    ----------------------
     S,P,L SHELL ROTATED AXIS INTEGRALS, REPROGRAMMED BY
        KAZUYA ISHIMURA (IMS) AND JOSE SIERRA (SYNSTAR).
     S,P,D,L SHELL ROTATED AXIS INTEGRALS PROGRAMMED BY
        KAZUYA ISHIMURA (INSTITUTE FOR MOLECULAR SCIENCE).
     S,P,D,F,G SHELL TO TOTAL QUARTET ANGULAR MOMENTUM SUM 5,
        ERIC PROGRAM BY GRAHAM FLETCHER (ELORET AND NASA ADVANCED
        SUPERCOMPUTING DIVISION, AMES RESEARCH CENTER).
     S,P,D,F,G,L SHELL GENERAL RYS QUADRATURE PROGRAMMED BY
        MICHEL DUPUIS (PACIFIC NORTHWEST NATIONAL LABORATORY).

          --------------------
          2 ELECTRON INTEGRALS
          --------------------

 THE -PK- OPTION IS OFF, THE INTEGRALS ARE NOT IN SUPERMATRIX FORM.
 STORING   15000 INTEGRALS/RECORD ON DISK, USING 12 BYTES/INTEGRAL.
 TWO ELECTRON INTEGRAL EVALUATION REQUIRES   99353 WORDS OF MEMORY.
 II,JST,KST,LST =  1  1  1  1 NREC =         1 INTLOC =    1
 II,JST,KST,LST =  2  1  1  1 NREC =         1 INTLOC =    1
 II,JST,KST,LST =  3  1  1  1 NREC =         1 INTLOC =    2
 II,JST,KST,LST =  4  1  1  1 NREC =         1 INTLOC =    7
 II,JST,KST,LST =  5  1  1  1 NREC =         1 INTLOC =   52
 II,JST,KST,LST =  6  1  1  1 NREC =         1 INTLOC =  139
 II,JST,KST,LST =  7  1  1  1 NREC =         1 INTLOC =  844
 II,JST,KST,LST =  8  1  1  1 NREC =         1 INTLOC =  951
 II,JST,KST,LST =  9  1  1  1 NREC =         1 INTLOC = 1433
 II,JST,KST,LST = 10  1  1  1 NREC =         1 INTLOC = 1874
 II,JST,KST,LST = 11  1  1  1 NREC =         1 INTLOC = 3631
 II,JST,KST,LST = 12  1  1  1 NREC =         1 INTLOC = 5410
 II,JST,KST,LST = 13  1  1  1 NREC =         1 INTLOC =12226
 II,JST,KST,LST = 14  1  1  1 NREC =         2 INTLOC =  949
 II,JST,KST,LST = 15  1  1  1 NREC =         2 INTLOC = 6514
 II,JST,KST,LST = 16  1  1  1 NREC =         2 INTLOC = 8093
 II,JST,KST,LST = 17  1  1  1 NREC =         3 INTLOC =  523
 II,JST,KST,LST = 18  1  1  1 NREC =         4 INTLOC = 1370
 II,JST,KST,LST = 19  1  1  1 NREC =         4 INTLOC =14692
 II,JST,KST,LST = 20  1  1  1 NREC =         7 INTLOC = 1865
 II,JST,KST,LST = 21  1  1  1 NREC =        12 INTLOC =13780
 II,JST,KST,LST = 22  1  1  1 NREC =        20 INTLOC = 8766
 TOTAL NUMBER OF NONZERO TWO-ELECTRON INTEGRALS =             1083276
         73 INTEGRAL RECORDS WERE STORED ON DISK FILE  8.
  ...... END OF TWO-ELECTRON INTEGRALS .....
 CPU     0: STEP CPU TIME=     0.10 TOTAL CPU TIME=        0.1 (    0.0 MIN)
 TOTAL WALL CLOCK TIME=        0.1 SECONDS, CPU UTILIZATION IS  92.31%

          --------------------------
                 RHF SCF CALCULATION
          --------------------------

     NUCLEAR ENERGY =         7.8375569539
     MAXIT =   30     NPUNCH=    2
     EXTRAP=T  DAMP=F  SHIFT=F  RSTRCT=F  DIIS=F  DEM=F  SOSCF=T
     DENSITY MATRIX CONV=  1.00E-05
     SOSCF WILL OPTIMIZE     265 ORBITAL ROTATIONS, SOGTOL=   0.250
     MEMORY REQUIRED FOR RHF ITERS=     61545 WORDS.

 ITER EX DEM     TOTAL ENERGY        E CHANGE  DENSITY CHANGE     ORB. GRAD
   1  0  0      -75.7460392797   -75.7460392797   0.152116583   0.000000000
          ---------------START SECOND ORDER SCF---------------
   2  1  0      -75.9781296922    -0.2320904124   0.044733631   0.047311243
   3  2  0      -75.9930401317    -0.0149104395   0.021521688   0.011845532
   4  3  0      -75.9949350764    -0.0018949447   0.003490009   0.003175349
   5  4  0      -75.9950269833    -0.0000919069   0.001701322   0.002022106
   6  5  0      -75.9950559340    -0.0000289507   0.000439584   0.000338168
   7  6  0      -75.9950571452    -0.0000012113   0.000141088   0.000102093
   8  7  0      -75.9950572137    -0.0000000684   0.000063846   0.000033506
   9  8  0      -75.9950572233    -0.0000000096   0.000009161   0.000006972
  10  9  0      -75.9950572235    -0.0000000002   0.000001871   0.000001196

          -----------------
          DENSITY CONVERGED
          -----------------
     TIME TO FORM FOCK OPERATORS=       0.1 SECONDS (       0.0 SEC/ITER)
     TIME TO SOLVE SCF EQUATIONS=       0.0 SECONDS (       0.0 SEC/ITER)

 FINAL RHF ENERGY IS      -75.9950572235 AFTER  10 ITERATIONS

          ------------
          EIGENVECTORS
          ------------

                      1          2          3          4          5
                  -20.5632    -1.2643    -0.6551    -0.5086    -0.4836
                     A          A          A          A          A   
    1  H  1  S    0.000182   0.064320  -0.129460  -0.074353   0.000000
    2  H  1  S    0.001467   0.064540  -0.209267  -0.120343   0.000000
    3  H  1  S   -0.000277   0.009521  -0.075670  -0.049211   0.000000
    4  H  1  X   -0.000000  -0.000000  -0.000000   0.000000   0.006801
    5  H  1  Y    0.000378   0.008810  -0.008271  -0.006871   0.000000
    6  H  1  Z    0.000198   0.004059  -0.006693   0.002241   0.000000
    7  H  1  X   -0.000000  -0.000000  -0.000000   0.000000   0.027026
    8  H  1  Y    0.000803   0.011122  -0.021199  -0.011982   0.000000
    9  H  1  Z    0.000387   0.002582  -0.015424   0.016905   0.000000
   10  H  1 XX   -0.000165  -0.000718   0.001690   0.000619   0.000000
   11  H  1 YY    0.000228   0.001579  -0.000978  -0.003030   0.000000
   12  H  1 ZZ   -0.000063  -0.000861  -0.000712   0.002411   0.000000
   13  H  1 XY   -0.000000  -0.000000  -0.000000   0.000000   0.004198
   14  H  1 XZ   -0.000000  -0.000000  -0.000000   0.000000   0.002167
   15  H  1 YZ    0.000203   0.000918  -0.002955   0.001610   0.000000
   16  H  2  S    0.000182   0.064320   0.129460  -0.074353   0.000000
   17  H  2  S    0.001467   0.064540   0.209267  -0.120343   0.000000
   18  H  2  S   -0.000277   0.009521   0.075670  -0.049211   0.000000
   19  H  2  X   -0.000000  -0.000000  -0.000000   0.000000   0.006801
   20  H  2  Y   -0.000378  -0.008810  -0.008271   0.006871   0.000000
   21  H  2  Z    0.000198   0.004059   0.006693   0.002241   0.000000
   22  H  2  X   -0.000000  -0.000000  -0.000000   0.000000   0.027026
   23  H  2  Y   -0.000803  -0.011122  -0.021199   0.011982   0.000000
   24  H  2  Z    0.000387   0.002582   0.015424   0.016905   0.000000
   25  H  2 XX   -0.000165  -0.000718  -0.001690   0.000619   0.000000
   26  H  2 YY    0.000228   0.001579   0.000978  -0.003030   0.000000
   27  H  2 ZZ   -0.000063  -0.000861   0.000712   0.002411   0.000000
   28  H  2 XY   -0.000000  -0.000000  -0.000000   0.000000  -0.004198
   29  H  2 XZ   -0.000000  -0.000000  -0.000000   0.000000   0.002167
   30  H  2 YZ   -0.000203  -0.000918  -0.002955  -0.001610   0.000000
   31  O  3  S    0.975922  -0.006147  -0.000000  -0.000264   0.000000
   32  O  3  S   -0.000842   0.522033  -0.000000   0.128489   0.000000
   33  O  3  S    0.043290   0.137304  -0.000000   0.042610   0.000000
   34  O  3  S    0.000766   0.329210  -0.000000   0.183501   0.000000
   35  O  3  X   -0.000000  -0.000000  -0.000000   0.000000   0.359189
   36  O  3  Y   -0.000000  -0.000000   0.261413   0.000000   0.000000
   37  O  3  Z   -0.001723  -0.018474  -0.000000   0.318739   0.000000
   38  O  3  X   -0.000000  -0.000000  -0.000000   0.000000   0.444854
   39  O  3  Y   -0.000000  -0.000000   0.337385   0.000000   0.000000
   40  O  3  Z    0.001500  -0.033837  -0.000000   0.397302   0.000000
   41  O  3  X   -0.000000  -0.000000  -0.000000   0.000000   0.389224
   42  O  3  Y   -0.000000  -0.000000   0.174203   0.000000   0.000000
   43  O  3  Z    0.000124  -0.007127  -0.000000   0.336672   0.000000
   44  O  3 XX    0.000025  -0.002248  -0.000000   0.004283   0.000000
   45  O  3 YY    0.000001   0.002886  -0.000000  -0.001614   0.000000
   46  O  3 ZZ   -0.000027  -0.000638  -0.000000  -0.002669   0.000000
   47  O  3 XY   -0.000000  -0.000000  -0.000000   0.000000   0.000000
   48  O  3 XZ   -0.000000  -0.000000  -0.000000   0.000000  -0.003672
   49  O  3 YZ   -0.000000  -0.000000  -0.009653   0.000000   0.000000
   50  O  3 XX    0.000681  -0.007313  -0.000000   0.015232   0.000000
   51  O  3 YY   -0.000914   0.010502  -0.000000  -0.002174   0.000000
   52  O  3 ZZ    0.000233  -0.003189  -0.000000  -0.013058   0.000000
   53  O  3 XY   -0.000000  -0.000000  -0.000000   0.000000   0.000000
   54  O  3 XZ   -0.000000  -0.000000  -0.000000   0.000000  -0.014549
   55  O  3 YZ   -0.000000  -0.000000  -0.023655   0.000000   0.000000
   56  O  3 XXX  -0.000000  -0.000000  -0.000000   0.000000  -0.003920
   57  O  3 YYY  -0.000000  -0.000000   0.004154   0.000000   0.000000
   58  O  3 ZZZ  -0.000126   0.001632  -0.000000  -0.001408   0.000000
   59  O  3 XXY  -0.000000  -0.000000  -0.004862   0.000000   0.000000
   60  O  3 XXZ  -0.000090   0.001185  -0.000000  -0.002929   0.000000
   61  O  3 YYX  -0.000000  -0.000000  -0.000000   0.000000   0.004756
   62  O  3 YYZ   0.000259  -0.003375  -0.000000   0.004818   0.000000
   63  O  3 ZZX  -0.000000  -0.000000  -0.000000   0.000000   0.000502
   64  O  3 ZZY  -0.000000  -0.000000  -0.000712   0.000000   0.000000
   65  O  3 XYZ  -0.000000  -0.000000  -0.000000   0.000000   0.000000

                      6          7          8          9         10
                    0.1147     0.1846     0.4472     0.5263     0.7291
                     A          A          A          A          A   
    1  H  1  S   -0.062651  -0.028746   0.114751  -0.084001   0.038725
    2  H  1  S   -0.171993  -0.080797   0.895501  -1.167229  -0.834155
    3  H  1  S   -0.807440  -1.380049  -0.794468   0.855480  -0.333776
    4  H  1  X    0.000000   0.000000  -0.000000   0.000000  -0.000000
    5  H  1  Y    0.007062   0.013931   0.021190  -0.014294  -0.007506
    6  H  1  Z    0.000611   0.011510   0.000819  -0.016244   0.017670
    7  H  1  X    0.000000   0.000000  -0.000000   0.000000  -0.000000
    8  H  1  Y   -0.069808  -0.098388  -0.262173   0.046422  -0.539131
    9  H  1  Z   -0.042215  -0.063916   0.026623   0.197096  -0.520779
   10  H  1 XX    0.008518   0.004760   0.002473   0.001012   0.036905
   11  H  1 YY   -0.010003  -0.007979  -0.008755  -0.008511  -0.052933
   12  H  1 ZZ    0.001485   0.003219   0.006282   0.007499   0.016028
   13  H  1 XY    0.000000   0.000000  -0.000000   0.000000  -0.000000
   14  H  1 XZ    0.000000   0.000000  -0.000000   0.000000  -0.000000
   15  H  1 YZ   -0.011654  -0.006540  -0.001104  -0.003027  -0.042154
   16  H  2  S   -0.062651   0.028746   0.114751   0.084001   0.038725
   17  H  2  S   -0.171993   0.080797   0.895501   1.167229  -0.834155
   18  H  2  S   -0.807440   1.380049  -0.794468  -0.855480  -0.333776
   19  H  2  X    0.000000   0.000000  -0.000000   0.000000  -0.000000
   20  H  2  Y   -0.007062   0.013931  -0.021190  -0.014294   0.007506
   21  H  2  Z    0.000611  -0.011510   0.000819   0.016244   0.017670
   22  H  2  X    0.000000   0.000000  -0.000000   0.000000  -0.000000
   23  H  2  Y    0.069808  -0.098388   0.262173   0.046422   0.539131
   24  H  2  Z   -0.042215   0.063916   0.026623  -0.197096  -0.520779
   25  H  2 XX    0.008518  -0.004760   0.002473  -0.001012   0.036905
   26  H  2 YY   -0.010003   0.007979  -0.008755   0.008511  -0.052933
   27  H  2 ZZ    0.001485  -0.003219   0.006282  -0.007499   0.016028
   28  H  2 XY    0.000000   0.000000  -0.000000   0.000000  -0.000000
   29  H  2 XZ    0.000000   0.000000  -0.000000   0.000000  -0.000000
   30  H  2 YZ    0.011654  -0.006540   0.001104  -0.003027   0.042154
   31  O  3  S   -0.042916   0.000000  -0.023017   0.000000  -0.025335
   32  O  3  S    0.101426   0.000000  -0.153497   0.000000  -0.033982
   33  O  3  S    0.042280   0.000000  -0.037765   0.000000  -0.054228
   34  O  3  S    1.074172   0.000000   0.321049   0.000000   2.049832
   35  O  3  X    0.000000   0.000000  -0.000000   0.000000  -0.000000
   36  O  3  Y    0.000000  -0.161186  -0.000000  -0.156753  -0.000000
   37  O  3  Z   -0.107163   0.000000   0.086980   0.000000   0.246171
   38  O  3  X    0.000000   0.000000  -0.000000   0.000000  -0.000000
   39  O  3  Y    0.000000  -0.201160  -0.000000  -0.210047  -0.000000
   40  O  3  Z   -0.158041   0.000000   0.081617   0.000000   0.483950
   41  O  3  X    0.000000   0.000000  -0.000000   0.000000  -0.000000
   42  O  3  Y    0.000000  -0.844342  -0.000000  -0.601161  -0.000000
   43  O  3  Z   -0.330774   0.000000   0.105502   0.000000  -1.348797
   44  O  3 XX    0.003113   0.000000  -0.008613   0.000000   0.020971
   45  O  3 YY   -0.005844   0.000000   0.017591   0.000000  -0.027529
   46  O  3 ZZ    0.002731   0.000000  -0.008978   0.000000   0.006559
   47  O  3 XY    0.000000   0.000000  -0.000000   0.000000  -0.000000
   48  O  3 XZ    0.000000   0.000000  -0.000000   0.000000  -0.000000
   49  O  3 YZ    0.000000  -0.003976  -0.000000  -0.020876  -0.000000
   50  O  3 XX   -0.026780   0.000000  -0.032096   0.000000  -0.188698
   51  O  3 YY    0.031560   0.000000   0.033342   0.000000   0.252729
   52  O  3 ZZ   -0.004780   0.000000  -0.001247   0.000000  -0.064031
   53  O  3 XY    0.000000   0.000000  -0.000000   0.000000  -0.000000
   54  O  3 XZ    0.000000   0.000000  -0.000000   0.000000  -0.000000
   55  O  3 YZ    0.000000   0.046451  -0.000000   0.020621  -0.000000
   56  O  3 XXX   0.000000   0.000000  -0.000000   0.000000  -0.000000
   57  O  3 YYY   0.000000  -0.005510  -0.000000  -0.004852  -0.000000
   58  O  3 ZZZ   0.004049   0.000000  -0.000332   0.000000   0.018213
   59  O  3 XXY   0.000000   0.005381  -0.000000   0.008415  -0.000000
   60  O  3 XXZ   0.003257   0.000000   0.000764   0.000000   0.011436
   61  O  3 YYX   0.000000   0.000000  -0.000000   0.000000  -0.000000
   62  O  3 YYZ  -0.008689   0.000000  -0.000319   0.000000  -0.035871
   63  O  3 ZZX   0.000000   0.000000  -0.000000   0.000000  -0.000000
   64  O  3 ZZY   0.000000   0.002012  -0.000000  -0.001906  -0.000000
   65  O  3 XYZ   0.000000   0.000000  -0.000000   0.000000  -0.000000

                     11         12         13         14         15
                    0.7802     0.7818     0.7916     0.9431     1.0221
                     A          A          A          A          A   
    1  H  1  S   -0.059895  -0.000000   0.000000   0.022180   0.000000
    2  H  1  S    1.008088  -0.000000   0.000000   0.532235   0.000000
    3  H  1  S    1.007099  -0.000000   0.000000  -0.214277   0.000000
    4  H  1  X    0.000000  -0.026241  -0.061727   0.000000   0.070418
    5  H  1  Y   -0.003448  -0.000000   0.000000  -0.050659   0.000000
    6  H  1  Z    0.013409  -0.000000   0.000000   0.049644   0.000000
    7  H  1  X    0.000000   0.227394   0.766569   0.000000  -0.921800
    8  H  1  Y    0.856390  -0.000000   0.000000   0.422019   0.000000
    9  H  1  Z    0.162523  -0.000000   0.000000  -0.714136   0.000000
   10  H  1 XX   -0.027929  -0.000000   0.000000   0.000039   0.000000
   11  H  1 YY    0.049352  -0.000000   0.000000   0.008126   0.000000
   12  H  1 ZZ   -0.021423  -0.000000   0.000000  -0.008165   0.000000
   13  H  1 XY    0.000000  -0.020536   0.006643   0.000000  -0.012062
   14  H  1 XZ    0.000000  -0.011872   0.009499   0.000000   0.003819
   15  H  1 YZ    0.050572  -0.000000   0.000000  -0.031695   0.000000
   16  H  2  S    0.059895  -0.000000   0.000000   0.022180   0.000000
   17  H  2  S   -1.008088  -0.000000   0.000000   0.532235   0.000000
   18  H  2  S   -1.007099  -0.000000   0.000000  -0.214277   0.000000
   19  H  2  X    0.000000  -0.026241   0.061727   0.000000   0.070418
   20  H  2  Y   -0.003448  -0.000000   0.000000   0.050659   0.000000
   21  H  2  Z   -0.013409  -0.000000   0.000000   0.049644   0.000000
   22  H  2  X    0.000000   0.227394  -0.766569   0.000000  -0.921800
   23  H  2  Y    0.856390  -0.000000   0.000000  -0.422019   0.000000
   24  H  2  Z   -0.162523  -0.000000   0.000000  -0.714136   0.000000
   25  H  2 XX    0.027929  -0.000000   0.000000   0.000039   0.000000
   26  H  2 YY   -0.049352  -0.000000   0.000000   0.008126   0.000000
   27  H  2 ZZ    0.021423  -0.000000   0.000000  -0.008165   0.000000
   28  H  2 XY    0.000000   0.020536   0.006643   0.000000   0.012062
   29  H  2 XZ    0.000000  -0.011872  -0.009499   0.000000   0.003819
   30  H  2 YZ    0.050572  -0.000000   0.000000   0.031695   0.000000
   31  O  3  S    0.000000  -0.000000   0.000000  -0.112318   0.000000
   32  O  3  S    0.000000  -0.000000   0.000000  -0.372669   0.000000
   33  O  3  S    0.000000  -0.000000   0.000000  -0.074293   0.000000
   34  O  3  S    0.000000  -0.000000   0.000000   0.103486   0.000000
   35  O  3  X    0.000000  -0.255920   0.000000   0.000000  -0.041749
   36  O  3  Y   -0.233612  -0.000000   0.000000   0.000000   0.000000
   37  O  3  Z    0.000000  -0.000000   0.000000  -0.046365   0.000000
   38  O  3  X    0.000000  -0.746835   0.000000   0.000000  -0.248300
   39  O  3  Y   -0.245712  -0.000000   0.000000   0.000000   0.000000
   40  O  3  Z    0.000000  -0.000000   0.000000  -0.295348   0.000000
   41  O  3  X    0.000000   0.922900   0.000000   0.000000   1.220183
   42  O  3  Y    2.540736  -0.000000   0.000000   0.000000   0.000000
   43  O  3  Z    0.000000  -0.000000   0.000000   1.377569   0.000000
   44  O  3 XX    0.000000  -0.000000   0.000000  -0.003929   0.000000
   45  O  3 YY    0.000000  -0.000000   0.000000  -0.015544   0.000000
   46  O  3 ZZ    0.000000  -0.000000   0.000000   0.019473   0.000000
   47  O  3 XY    0.000000  -0.000000  -0.023729   0.000000   0.000000
   48  O  3 XZ    0.000000   0.003313   0.000000   0.000000   0.011922
   49  O  3 YZ    0.041549  -0.000000   0.000000   0.000000   0.000000
   50  O  3 XX    0.000000  -0.000000   0.000000  -0.049261   0.000000
   51  O  3 YY    0.000000  -0.000000   0.000000   0.033100   0.000000
   52  O  3 ZZ    0.000000  -0.000000   0.000000   0.016160   0.000000
   53  O  3 XY    0.000000  -0.000000  -0.001554   0.000000   0.000000
   54  O  3 XZ    0.000000  -0.017952   0.000000   0.000000   0.074583
   55  O  3 YZ   -0.294555  -0.000000   0.000000   0.000000   0.000000
   56  O  3 XXX   0.000000  -0.000512   0.000000   0.000000  -0.009206
   57  O  3 YYY   0.016919  -0.000000   0.000000   0.000000   0.000000
   58  O  3 ZZZ   0.000000  -0.000000   0.000000   0.002312   0.000000
   59  O  3 XXY  -0.027143  -0.000000   0.000000   0.000000   0.000000
   60  O  3 XXZ   0.000000  -0.000000   0.000000  -0.001653   0.000000
   61  O  3 YYX   0.000000   0.000486   0.000000   0.000000   0.014475
   62  O  3 YYZ   0.000000  -0.000000   0.000000  -0.001449   0.000000
   63  O  3 ZZX   0.000000   0.000200   0.000000   0.000000  -0.002124
   64  O  3 ZZY   0.004443  -0.000000   0.000000   0.000000   0.000000
   65  O  3 XYZ   0.000000  -0.000000  -0.010035   0.000000   0.000000

                     16         17         18         19         20
                    1.0734     1.2684     1.3236     1.4396     1.8784
                     A          A          A          A          A   
    1  H  1  S   -0.008095   0.072813  -0.100777   0.136422   0.000000
    2  H  1  S    1.300044  -1.396267  -1.395257   0.944841   0.000000
    3  H  1  S    0.311574  -0.467439  -0.491928   0.717861   0.000000
    4  H  1  X   -0.000000  -0.000000   0.000000   0.000000  -0.030005
    5  H  1  Y    0.034916  -0.042025   0.095965  -0.077617   0.000000
    6  H  1  Z   -0.054818  -0.052335   0.015639  -0.069031   0.000000
    7  H  1  X   -0.000000  -0.000000   0.000000   0.000000   0.407267
    8  H  1  Y   -0.088394  -0.720737  -1.627762   1.219436   0.000000
    9  H  1  Z    0.935574   0.021101  -0.583889   0.886058   0.000000
   10  H  1 XX   -0.017267   0.093104   0.053231  -0.007573   0.000000
   11  H  1 YY    0.027891  -0.104910  -0.042044   0.031460   0.000000
   12  H  1 ZZ   -0.010624   0.011806  -0.011188  -0.023886   0.000000
   13  H  1 XY   -0.000000  -0.000000   0.000000   0.000000  -0.048835
   14  H  1 XZ   -0.000000  -0.000000   0.000000   0.000000   0.058299
   15  H  1 YZ    0.016967  -0.111171  -0.049376   0.022696   0.000000
   16  H  2  S    0.008095   0.072813  -0.100777  -0.136422   0.000000
   17  H  2  S   -1.300044  -1.396267  -1.395257  -0.944841   0.000000
   18  H  2  S   -0.311574  -0.467439  -0.491928  -0.717861   0.000000
   19  H  2  X   -0.000000  -0.000000   0.000000   0.000000  -0.030005
   20  H  2  Y    0.034916   0.042025  -0.095965  -0.077617   0.000000
   21  H  2  Z    0.054818  -0.052335   0.015639   0.069031   0.000000
   22  H  2  X   -0.000000  -0.000000   0.000000   0.000000   0.407267
   23  H  2  Y   -0.088394   0.720737   1.627762   1.219436   0.000000
   24  H  2  Z   -0.935574   0.021101  -0.583889  -0.886058   0.000000
   25  H  2 XX    0.017267   0.093104   0.053231   0.007573   0.000000
   26  H  2 YY   -0.027891  -0.104910  -0.042044  -0.031460   0.000000
   27  H  2 ZZ    0.010624   0.011806  -0.011188   0.023886   0.000000
   28  H  2 XY   -0.000000  -0.000000   0.000000   0.000000   0.048835
   29  H  2 XZ   -0.000000  -0.000000   0.000000   0.000000   0.058299
   30  H  2 YZ    0.016967   0.111171   0.049376   0.022696   0.000000
   31  O  3  S   -0.000000  -0.520242   0.028134   0.000000   0.000000
   32  O  3  S   -0.000000  -1.421598   0.168553   0.000000   0.000000
   33  O  3  S   -0.000000  -0.362756  -0.017614   0.000000   0.000000
   34  O  3  S   -0.000000   4.332527   3.722053   0.000000   0.000000
   35  O  3  X   -0.000000  -0.000000   0.000000   0.000000   0.022370
   36  O  3  Y   -0.072195  -0.000000   0.000000   0.198729   0.000000
   37  O  3  Z   -0.000000   0.032545  -0.129184   0.000000   0.000000
   38  O  3  X   -0.000000  -0.000000   0.000000   0.000000   0.043302
   39  O  3  Y   -0.194314  -0.000000   0.000000   0.925287   0.000000
   40  O  3  Z   -0.000000  -0.180808  -0.646425   0.000000   0.000000
   41  O  3  X   -0.000000  -0.000000   0.000000   0.000000  -0.412306
   42  O  3  Y    2.483880  -0.000000   0.000000   1.353553   0.000000
   43  O  3  Z   -0.000000  -1.182531  -0.777437   0.000000   0.000000
   44  O  3 XX   -0.000000   0.019602   0.018393   0.000000   0.000000
   45  O  3 YY   -0.000000  -0.026455  -0.029961   0.000000   0.000000
   46  O  3 ZZ   -0.000000   0.006852   0.011568   0.000000   0.000000
   47  O  3 XY   -0.000000  -0.000000   0.000000   0.000000   0.000000
   48  O  3 XZ   -0.000000  -0.000000   0.000000   0.000000  -0.015429
   49  O  3 YZ    0.011912  -0.000000   0.000000   0.014030   0.000000
   50  O  3 XX   -0.000000  -0.089261  -0.028388   0.000000   0.000000
   51  O  3 YY   -0.000000   0.285895   0.157993   0.000000   0.000000
   52  O  3 ZZ   -0.000000  -0.196635  -0.129605   0.000000   0.000000
   53  O  3 XY   -0.000000  -0.000000   0.000000   0.000000   0.000000
   54  O  3 XZ   -0.000000  -0.000000   0.000000   0.000000   1.027003
   55  O  3 YZ   -0.122867  -0.000000   0.000000   0.001539   0.000000
   56  O  3 XXX  -0.000000  -0.000000   0.000000   0.000000   0.000721
   57  O  3 YYY   0.018606  -0.000000   0.000000   0.007769   0.000000
   58  O  3 ZZZ  -0.000000   0.040598   0.015359   0.000000   0.000000
   59  O  3 XXY  -0.016085  -0.000000   0.000000  -0.007719   0.000000
   60  O  3 XXZ  -0.000000   0.023921   0.007527   0.000000   0.000000
   61  O  3 YYX  -0.000000  -0.000000   0.000000   0.000000   0.011997
   62  O  3 YYZ  -0.000000  -0.078388  -0.028133   0.000000   0.000000
   63  O  3 ZZX  -0.000000  -0.000000   0.000000   0.000000  -0.012965
   64  O  3 ZZY  -0.008877  -0.000000   0.000000  -0.002704   0.000000
   65  O  3 XYZ  -0.000000  -0.000000   0.000000   0.000000   0.000000

                     21         22         23         24         25
                    1.9557     2.0445     2.2611     2.3663     2.7237
                     A          A          A          A          A   
    1  H  1  S   -0.197995   0.000000   0.327569   0.299976  -1.050931
    2  H  1  S   -0.115477   0.000000  -2.766167  -3.289677   1.945345
    3  H  1  S   -0.172162   0.000000  -0.304292  -0.193725  -0.311118
    4  H  1  X    0.000000  -0.080170  -0.000000   0.000000  -0.000000
    5  H  1  Y    0.026996   0.000000   0.041138  -0.018303   0.030959
    6  H  1  Z   -0.043027   0.000000  -0.066208   0.082742   0.057142
    7  H  1  X    0.000000   0.486448  -0.000000   0.000000  -0.000000
    8  H  1  Y   -0.381465   0.000000  -1.324175  -1.735122   0.592714
    9  H  1  Z    0.370592   0.000000  -0.621831  -0.804101  -0.010134
   10  H  1 XX   -0.052696   0.000000   0.099850   0.059092  -0.030123
   11  H  1 YY    0.027274   0.000000  -0.096839  -0.138373  -0.098313
   12  H  1 ZZ    0.025422   0.000000  -0.003011   0.079281   0.128436
   13  H  1 XY    0.000000  -0.021089  -0.000000   0.000000  -0.000000
   14  H  1 XZ    0.000000  -0.061481  -0.000000   0.000000  -0.000000
   15  H  1 YZ   -0.049245   0.000000  -0.107718  -0.151801   0.026848
   16  H  2  S   -0.197995   0.000000  -0.327569   0.299976  -1.050931
   17  H  2  S   -0.115477   0.000000   2.766167  -3.289677   1.945345
   18  H  2  S   -0.172162   0.000000   0.304292  -0.193725  -0.311118
   19  H  2  X    0.000000   0.080170  -0.000000   0.000000  -0.000000
   20  H  2  Y   -0.026996   0.000000   0.041138   0.018303  -0.030959
   21  H  2  Z   -0.043027   0.000000   0.066208   0.082742   0.057142
   22  H  2  X    0.000000  -0.486448  -0.000000   0.000000  -0.000000
   23  H  2  Y    0.381465   0.000000  -1.324175   1.735122  -0.592714
   24  H  2  Z    0.370592   0.000000   0.621831  -0.804101  -0.010134
   25  H  2 XX   -0.052696   0.000000  -0.099850   0.059092  -0.030123
   26  H  2 YY    0.027274   0.000000   0.096839  -0.138373  -0.098313
   27  H  2 ZZ    0.025422   0.000000   0.003011   0.079281   0.128436
   28  H  2 XY    0.000000  -0.021089  -0.000000   0.000000  -0.000000
   29  H  2 XZ    0.000000   0.061481  -0.000000   0.000000  -0.000000
   30  H  2 YZ    0.049245   0.000000  -0.107718   0.151801  -0.026848
   31  O  3  S   -0.109166   0.000000  -0.000000  -0.081463  -0.068504
   32  O  3  S   -0.261192   0.000000  -0.000000  -0.177621  -0.147412
   33  O  3  S   -0.059631   0.000000  -0.000000  -0.193575   0.023496
   34  O  3  S    0.902567   0.000000  -0.000000   5.752550  -1.515299
   35  O  3  X    0.000000   0.000000  -0.000000   0.000000  -0.000000
   36  O  3  Y    0.000000   0.000000  -0.091326   0.000000  -0.000000
   37  O  3  Z    0.002731   0.000000  -0.000000  -0.141126  -0.086020
   38  O  3  X    0.000000   0.000000  -0.000000   0.000000  -0.000000
   39  O  3  Y    0.000000   0.000000  -0.834226   0.000000  -0.000000
   40  O  3  Z    0.034169   0.000000  -0.000000  -0.523451   0.194910
   41  O  3  X    0.000000   0.000000  -0.000000   0.000000  -0.000000
   42  O  3  Y    0.000000   0.000000  -2.752764   0.000000  -0.000000
   43  O  3  Z   -0.666663   0.000000  -0.000000  -1.650778   0.697064
   44  O  3 XX    0.012117   0.000000  -0.000000   0.019703  -0.006712
   45  O  3 YY   -0.002086   0.000000  -0.000000  -0.029323   0.029770
   46  O  3 ZZ   -0.010031   0.000000  -0.000000   0.009620  -0.023058
   47  O  3 XY    0.000000  -0.006111  -0.000000   0.000000  -0.000000
   48  O  3 XZ    0.000000   0.000000  -0.000000   0.000000  -0.000000
   49  O  3 YZ    0.000000   0.000000  -0.021920   0.000000  -0.000000
   50  O  3 XX   -0.651473   0.000000  -0.000000  -1.310305   0.062208
   51  O  3 YY   -0.355991   0.000000  -0.000000   1.663047   0.138953
   52  O  3 ZZ    1.007464   0.000000  -0.000000  -0.352743  -0.201161
   53  O  3 XY    0.000000   1.111891  -0.000000   0.000000  -0.000000
   54  O  3 XZ    0.000000   0.000000  -0.000000   0.000000  -0.000000
   55  O  3 YZ    0.000000   0.000000   1.556665   0.000000  -0.000000
   56  O  3 XXX   0.000000   0.000000  -0.000000   0.000000  -0.000000
   57  O  3 YYY   0.000000   0.000000  -0.031123   0.000000  -0.000000
   58  O  3 ZZZ  -0.019578   0.000000  -0.000000   0.051760  -0.068336
   59  O  3 XXY   0.000000   0.000000   0.061485   0.000000  -0.000000
   60  O  3 XXZ   0.001151   0.000000  -0.000000   0.038440  -0.033857
   61  O  3 YYX   0.000000   0.000000  -0.000000   0.000000  -0.000000
   62  O  3 YYZ   0.025116   0.000000  -0.000000  -0.107883   0.125539
   63  O  3 ZZX   0.000000   0.000000  -0.000000   0.000000  -0.000000
   64  O  3 ZZY   0.000000   0.000000  -0.019730   0.000000  -0.000000
   65  O  3 XYZ   0.000000   0.001089  -0.000000   0.000000  -0.000000

                     26         27         28         29         30
                    2.7382     3.3982     3.4062     3.4095     3.5019
                     A          A          A          A          A   
    1  H  1  S    1.056269  -0.000000   0.096510  -0.000000  -0.092723
    2  H  1  S   -1.644287  -0.000000  -0.094491  -0.000000  -0.289203
    3  H  1  S    0.443806  -0.000000   0.066496  -0.000000  -0.090635
    4  H  1  X   -0.000000   0.131438  -0.000000   0.239021   0.000000
    5  H  1  Y   -0.081347  -0.000000  -0.165753  -0.000000   0.213230
    6  H  1  Z   -0.005297  -0.000000   0.059646  -0.000000   0.041171
    7  H  1  X   -0.000000  -0.057358  -0.000000  -0.123904   0.000000
    8  H  1  Y   -0.205082  -0.000000   0.110556  -0.000000  -0.359654
    9  H  1  Z   -0.294776  -0.000000  -0.016503  -0.000000  -0.105490
   10  H  1 XX   -0.095522  -0.000000   0.536545  -0.000000   0.618485
   11  H  1 YY   -0.018683  -0.000000  -0.165319  -0.000000  -0.145321
   12  H  1 ZZ    0.114205  -0.000000  -0.371226  -0.000000  -0.473164
   13  H  1 XY   -0.000000   0.449359  -0.000000   0.041185   0.000000
   14  H  1 XZ   -0.000000  -0.511106  -0.000000   0.617567   0.000000
   15  H  1 YZ    0.047515  -0.000000   0.388783  -0.000000   0.177310
   16  H  2  S   -1.056269  -0.000000  -0.096510  -0.000000  -0.092723
   17  H  2  S    1.644287  -0.000000   0.094491  -0.000000  -0.289203
   18  H  2  S   -0.443806  -0.000000  -0.066496  -0.000000  -0.090635
   19  H  2  X   -0.000000  -0.131438  -0.000000   0.239021   0.000000
   20  H  2  Y   -0.081347  -0.000000  -0.165753  -0.000000  -0.213230
   21  H  2  Z    0.005297  -0.000000  -0.059646  -0.000000   0.041171
   22  H  2  X   -0.000000   0.057358  -0.000000  -0.123904   0.000000
   23  H  2  Y   -0.205082  -0.000000   0.110556  -0.000000   0.359654
   24  H  2  Z    0.294776  -0.000000   0.016503  -0.000000  -0.105490
   25  H  2 XX    0.095522  -0.000000  -0.536545  -0.000000   0.618485
   26  H  2 YY    0.018683  -0.000000   0.165319  -0.000000  -0.145321
   27  H  2 ZZ   -0.114205  -0.000000   0.371226  -0.000000  -0.473164
   28  H  2 XY   -0.000000   0.449359  -0.000000  -0.041185   0.000000
   29  H  2 XZ   -0.000000   0.511106  -0.000000   0.617567   0.000000
   30  H  2 YZ    0.047515  -0.000000   0.388783  -0.000000  -0.177310
   31  O  3  S   -0.000000  -0.000000  -0.000000  -0.000000   0.028902
   32  O  3  S   -0.000000  -0.000000  -0.000000  -0.000000   0.021584
   33  O  3  S   -0.000000  -0.000000  -0.000000  -0.000000  -0.044597
   34  O  3  S   -0.000000  -0.000000  -0.000000  -0.000000   0.787543
   35  O  3  X   -0.000000  -0.000000  -0.000000  -0.307152   0.000000
   36  O  3  Y    0.129733  -0.000000  -0.001074  -0.000000   0.000000
   37  O  3  Z   -0.000000  -0.000000  -0.000000  -0.000000   0.034254
   38  O  3  X   -0.000000  -0.000000  -0.000000   0.188987   0.000000
   39  O  3  Y   -0.397288  -0.000000   0.053078  -0.000000   0.000000
   40  O  3  Z   -0.000000  -0.000000  -0.000000  -0.000000  -0.088431
   41  O  3  X   -0.000000  -0.000000  -0.000000  -0.084381   0.000000
   42  O  3  Y   -0.565371  -0.000000  -0.012722  -0.000000   0.000000
   43  O  3  Z   -0.000000  -0.000000  -0.000000  -0.000000  -0.227524
   44  O  3 XX   -0.000000  -0.000000  -0.000000  -0.000000  -0.046685
   45  O  3 YY   -0.000000  -0.000000  -0.000000  -0.000000   0.034949
   46  O  3 ZZ   -0.000000  -0.000000  -0.000000  -0.000000   0.011736
   47  O  3 XY   -0.000000  -0.034039  -0.000000  -0.000000   0.000000
   48  O  3 XZ   -0.000000  -0.000000  -0.000000  -0.034256   0.000000
   49  O  3 YZ   -0.026579  -0.000000  -0.037889  -0.000000   0.000000
   50  O  3 XX   -0.000000  -0.000000  -0.000000  -0.000000  -0.339157
   51  O  3 YY   -0.000000  -0.000000  -0.000000  -0.000000   0.182503
   52  O  3 ZZ   -0.000000  -0.000000  -0.000000  -0.000000   0.156654
   53  O  3 XY   -0.000000   0.035652  -0.000000  -0.000000   0.000000
   54  O  3 XZ   -0.000000  -0.000000  -0.000000  -0.075157   0.000000
   55  O  3 YZ   -0.213608  -0.000000  -0.007310  -0.000000   0.000000
   56  O  3 XXX  -0.000000  -0.000000  -0.000000  -0.035228   0.000000
   57  O  3 YYY  -0.056698  -0.000000   0.023730  -0.000000   0.000000
   58  O  3 ZZZ  -0.000000  -0.000000  -0.000000  -0.000000   0.106887
   59  O  3 XXY   0.095359  -0.000000  -0.106427  -0.000000   0.000000
   60  O  3 XXZ  -0.000000  -0.000000  -0.000000  -0.000000  -0.054505
   61  O  3 YYX  -0.000000  -0.000000  -0.000000   0.126282   0.000000
   62  O  3 YYZ  -0.000000  -0.000000  -0.000000  -0.000000  -0.088899
   63  O  3 ZZX  -0.000000  -0.000000  -0.000000  -0.079019   0.000000
   64  O  3 ZZY  -0.019290  -0.000000   0.074590  -0.000000   0.000000
   65  O  3 XYZ  -0.000000   0.106093  -0.000000  -0.000000   0.000000

                     31         32         33         34         35
                    3.6645     3.7302     3.8267     3.8740     3.9938
                     A          A          A          A          A   
    1  H  1  S    0.000000   0.062391   0.015302   0.000000  -0.093202
    2  H  1  S    0.000000   0.820229  -0.668830   0.000000   0.306838
    3  H  1  S    0.000000   0.289464  -0.155547   0.000000  -0.063715
    4  H  1  X   -0.399133   0.000000  -0.000000  -0.868327   0.000000
    5  H  1  Y    0.000000  -0.176918   0.666424   0.000000  -0.165265
    6  H  1  Z    0.000000  -0.502218  -0.135539   0.000000   0.776764
    7  H  1  X    0.128904   0.000000  -0.000000   0.528678   0.000000
    8  H  1  Y    0.000000   0.667498  -0.839223   0.000000   0.176444
    9  H  1  Z    0.000000   0.532037  -0.166398   0.000000  -0.669443
   10  H  1 XX    0.000000   0.011650  -0.135036   0.000000   0.032661
   11  H  1 YY    0.000000   0.418968   0.120176   0.000000   0.147909
   12  H  1 ZZ    0.000000  -0.430618   0.014860   0.000000  -0.180570
   13  H  1 XY   -0.459635   0.000000  -0.000000   0.175800   0.000000
   14  H  1 XZ    0.257214   0.000000  -0.000000  -0.037905   0.000000
   15  H  1 YZ    0.000000  -0.148667  -0.224646   0.000000  -0.327548
   16  H  2  S    0.000000  -0.062391   0.015302   0.000000  -0.093202
   17  H  2  S    0.000000  -0.820229  -0.668830   0.000000   0.306838
   18  H  2  S    0.000000  -0.289464  -0.155547   0.000000  -0.063715
   19  H  2  X   -0.399133   0.000000  -0.000000   0.868327   0.000000
   20  H  2  Y    0.000000  -0.176918  -0.666424   0.000000   0.165265
   21  H  2  Z    0.000000   0.502218  -0.135539   0.000000   0.776764
   22  H  2  X    0.128904   0.000000  -0.000000  -0.528678   0.000000
   23  H  2  Y    0.000000   0.667498   0.839223   0.000000  -0.176444
   24  H  2  Z    0.000000  -0.532037  -0.166398   0.000000  -0.669443
   25  H  2 XX    0.000000  -0.011650  -0.135036   0.000000   0.032661
   26  H  2 YY    0.000000  -0.418968   0.120176   0.000000   0.147909
   27  H  2 ZZ    0.000000   0.430618   0.014860   0.000000  -0.180570
   28  H  2 XY    0.459635   0.000000  -0.000000   0.175800   0.000000
   29  H  2 XZ    0.257214   0.000000  -0.000000   0.037905   0.000000
   30  H  2 YZ    0.000000  -0.148667   0.224646   0.000000   0.327548
   31  O  3  S    0.000000   0.000000   0.077274   0.000000   0.092702
   32  O  3  S    0.000000   0.000000   0.038574   0.000000   0.220035
   33  O  3  S    0.000000   0.000000  -0.109609   0.000000   0.064601
   34  O  3  S    0.000000   0.000000   1.564616   0.000000  -0.313974
   35  O  3  X    0.569656   0.000000  -0.000000   0.000000   0.000000
   36  O  3  Y    0.000000  -0.287390  -0.000000   0.000000   0.000000
   37  O  3  Z    0.000000   0.000000   0.604663   0.000000   0.321543
   38  O  3  X   -0.507145   0.000000  -0.000000   0.000000   0.000000
   39  O  3  Y    0.000000   0.535180  -0.000000   0.000000   0.000000
   40  O  3  Z    0.000000   0.000000  -0.700157   0.000000  -0.322785
   41  O  3  X    0.257764   0.000000  -0.000000   0.000000   0.000000
   42  O  3  Y    0.000000   0.970873  -0.000000   0.000000   0.000000
   43  O  3  Z    0.000000   0.000000  -0.199369   0.000000   0.694048
   44  O  3 XX    0.000000   0.000000  -0.066166   0.000000   0.009912
   45  O  3 YY    0.000000   0.000000   0.085278   0.000000  -0.005771
   46  O  3 ZZ    0.000000   0.000000  -0.019112   0.000000  -0.004141
   47  O  3 XY    0.000000   0.000000  -0.000000  -0.007336   0.000000
   48  O  3 XZ   -0.002743   0.000000  -0.000000   0.000000   0.000000
   49  O  3 YZ    0.000000  -0.035512  -0.000000   0.000000   0.000000
   50  O  3 XX    0.000000   0.000000   0.006290   0.000000   0.126792
   51  O  3 YY    0.000000   0.000000   0.218816   0.000000   0.133362
   52  O  3 ZZ    0.000000   0.000000  -0.225106   0.000000  -0.260154
   53  O  3 XY    0.000000   0.000000  -0.000000   0.007533   0.000000
   54  O  3 XZ   -0.340788   0.000000  -0.000000   0.000000   0.000000
   55  O  3 YZ    0.000000  -0.594312  -0.000000   0.000000   0.000000
   56  O  3 XXX   0.092065   0.000000  -0.000000   0.000000   0.000000
   57  O  3 YYY   0.000000   0.154044  -0.000000   0.000000   0.000000
   58  O  3 ZZZ   0.000000   0.000000  -0.009868   0.000000   0.027119
   59  O  3 XXY   0.000000  -0.063444  -0.000000   0.000000   0.000000
   60  O  3 XXZ   0.000000   0.000000   0.080223   0.000000  -0.000304
   61  O  3 YYX  -0.045486   0.000000  -0.000000   0.000000   0.000000
   62  O  3 YYZ   0.000000   0.000000  -0.066984   0.000000  -0.036080
   63  O  3 ZZX  -0.078032   0.000000  -0.000000   0.000000   0.000000
   64  O  3 ZZY   0.000000  -0.143228  -0.000000   0.000000   0.000000
   65  O  3 XYZ   0.000000   0.000000  -0.000000  -0.133882   0.000000

                     36         37         38         39         40
                    4.0348     4.0700     4.0885     4.2188     4.2988
                     A          A          A          A          A   
    1  H  1  S   -0.082365  -0.000000   0.118323  -0.000000   0.227271
    2  H  1  S   -0.008166  -0.000000  -0.309366  -0.000000  -0.745424
    3  H  1  S    0.120143  -0.000000  -0.054458  -0.000000  -0.096144
    4  H  1  X   -0.000000   0.781450   0.000000   0.014346   0.000000
    5  H  1  Y   -0.672097  -0.000000  -0.177022  -0.000000   0.402934
    6  H  1  Z    0.088214  -0.000000   0.710560  -0.000000   0.173284
    7  H  1  X   -0.000000  -0.721707   0.000000   0.331622   0.000000
    8  H  1  Y    0.552541  -0.000000   0.172826  -0.000000  -0.753373
    9  H  1  Z    0.074387  -0.000000  -0.665115  -0.000000  -0.187994
   10  H  1 XX   -0.146393  -0.000000  -0.048914  -0.000000   0.169223
   11  H  1 YY   -0.095546  -0.000000   0.454078  -0.000000  -0.452368
   12  H  1 ZZ    0.241939  -0.000000  -0.405165  -0.000000   0.283145
   13  H  1 XY   -0.000000  -0.392121   0.000000   0.592639   0.000000
   14  H  1 XZ   -0.000000  -0.134775   0.000000   0.566416   0.000000
   15  H  1 YZ    0.027118  -0.000000  -0.212771  -0.000000  -0.338754
   16  H  2  S    0.082365  -0.000000  -0.118323  -0.000000   0.227271
   17  H  2  S    0.008166  -0.000000   0.309366  -0.000000  -0.745424
   18  H  2  S   -0.120143  -0.000000   0.054458  -0.000000  -0.096144
   19  H  2  X   -0.000000   0.781450   0.000000  -0.014346   0.000000
   20  H  2  Y   -0.672097  -0.000000  -0.177022  -0.000000  -0.402934
   21  H  2  Z   -0.088214  -0.000000  -0.710560  -0.000000   0.173284
   22  H  2  X   -0.000000  -0.721707   0.000000  -0.331622   0.000000
   23  H  2  Y    0.552541  -0.000000   0.172826  -0.000000   0.753373
   24  H  2  Z   -0.074387  -0.000000   0.665115  -0.000000  -0.187994
   25  H  2 XX    0.146393  -0.000000   0.048914  -0.000000   0.169223
   26  H  2 YY    0.095546  -0.000000  -0.454078  -0.000000  -0.452368
   27  H  2 ZZ   -0.241939  -0.000000   0.405165  -0.000000   0.283145
   28  H  2 XY   -0.000000   0.392121   0.000000   0.592639   0.000000
   29  H  2 XZ   -0.000000  -0.134775   0.000000  -0.566416   0.000000
   30  H  2 YZ    0.027118  -0.000000  -0.212771  -0.000000   0.338754
   31  O  3  S   -0.000000  -0.000000   0.000000  -0.000000   0.263553
   32  O  3  S   -0.000000  -0.000000   0.000000  -0.000000   0.567879
   33  O  3  S   -0.000000  -0.000000   0.000000  -0.000000   0.032198
   34  O  3  S   -0.000000  -0.000000   0.000000  -0.000000   1.028106
   35  O  3  X   -0.000000   0.360285   0.000000  -0.000000   0.000000
   36  O  3  Y   -0.724294  -0.000000   0.161861  -0.000000   0.000000
   37  O  3  Z   -0.000000  -0.000000   0.000000  -0.000000  -0.672437
   38  O  3  X   -0.000000  -0.278488   0.000000  -0.000000   0.000000
   39  O  3  Y    0.849535  -0.000000  -0.100992  -0.000000   0.000000
   40  O  3  Z   -0.000000  -0.000000   0.000000  -0.000000   0.414405
   41  O  3  X   -0.000000   0.640765   0.000000  -0.000000   0.000000
   42  O  3  Y   -0.336405  -0.000000  -0.544924  -0.000000   0.000000
   43  O  3  Z   -0.000000  -0.000000   0.000000  -0.000000  -0.645090
   44  O  3 XX   -0.000000  -0.000000   0.000000  -0.000000   0.016468
   45  O  3 YY   -0.000000  -0.000000   0.000000  -0.000000  -0.034368
   46  O  3 ZZ   -0.000000  -0.000000   0.000000  -0.000000   0.017900
   47  O  3 XY   -0.000000  -0.000000   0.000000  -0.035787   0.000000
   48  O  3 XZ   -0.000000  -0.007184   0.000000  -0.000000   0.000000
   49  O  3 YZ   -0.080315  -0.000000   0.078352  -0.000000   0.000000
   50  O  3 XX   -0.000000  -0.000000   0.000000  -0.000000   0.016934
   51  O  3 YY   -0.000000  -0.000000   0.000000  -0.000000  -0.158061
   52  O  3 ZZ   -0.000000  -0.000000   0.000000  -0.000000   0.141128
   53  O  3 XY   -0.000000  -0.000000   0.000000   0.897551   0.000000
   54  O  3 XZ   -0.000000  -0.245300   0.000000  -0.000000   0.000000
   55  O  3 YZ    0.453429  -0.000000  -0.370146  -0.000000   0.000000
   56  O  3 XXX  -0.000000  -0.061252   0.000000  -0.000000   0.000000
   57  O  3 YYY  -0.102223  -0.000000  -0.041792  -0.000000   0.000000
   58  O  3 ZZZ  -0.000000  -0.000000   0.000000  -0.000000   0.161290
   59  O  3 XXY  -0.022920  -0.000000   0.003066  -0.000000   0.000000
   60  O  3 XXZ  -0.000000  -0.000000   0.000000  -0.000000   0.128016
   61  O  3 YYX  -0.000000   0.095919   0.000000  -0.000000   0.000000
   62  O  3 YYZ  -0.000000  -0.000000   0.000000  -0.000000  -0.344410
   63  O  3 ZZX  -0.000000  -0.013741   0.000000  -0.000000   0.000000
   64  O  3 ZZY   0.160067  -0.000000   0.053005  -0.000000   0.000000
   65  O  3 XYZ  -0.000000  -0.000000   0.000000   0.178165   0.000000

                     41         42         43         44         45
                    4.4562     4.5115     4.7172     5.0407     5.6445
                     A          A          A          A          A   
    1  H  1  S   -0.000000  -0.334112  -0.013755   0.337141  -0.216877
    2  H  1  S   -0.000000   1.587503  -1.686805  -2.348561   1.880447
    3  H  1  S   -0.000000   0.291239  -0.112185  -0.153343   0.074936
    4  H  1  X   -0.016784  -0.000000   0.000000   0.000000   0.000000
    5  H  1  Y   -0.000000  -0.231179  -0.299536  -0.074252   0.228862
    6  H  1  Z   -0.000000  -0.180350  -0.440781  -0.075011   0.031159
    7  H  1  X   -0.129120  -0.000000   0.000000   0.000000   0.000000
    8  H  1  Y   -0.000000   1.098637  -0.764062  -1.495921   1.041548
    9  H  1  Z   -0.000000   0.709630  -0.556955  -0.351384   0.602115
   10  H  1 XX   -0.000000  -0.536537   0.346816   0.368589  -0.176357
   11  H  1 YY   -0.000000   0.552746   0.002481  -0.806007   0.403996
   12  H  1 ZZ   -0.000000  -0.016210  -0.349297   0.437418  -0.227639
   13  H  1 XY   -0.477091  -0.000000   0.000000   0.000000   0.000000
   14  H  1 XZ   -0.100966  -0.000000   0.000000   0.000000   0.000000
   15  H  1 YZ   -0.000000   0.626835  -0.803560  -0.188063   0.488136
   16  H  2  S   -0.000000   0.334112  -0.013755   0.337141   0.216877
   17  H  2  S   -0.000000  -1.587503  -1.686805  -2.348561  -1.880447
   18  H  2  S   -0.000000  -0.291239  -0.112185  -0.153343  -0.074936
   19  H  2  X   -0.016784  -0.000000   0.000000   0.000000   0.000000
   20  H  2  Y   -0.000000  -0.231179   0.299536   0.074252   0.228862
   21  H  2  Z   -0.000000   0.180350  -0.440781  -0.075011  -0.031159
   22  H  2  X   -0.129120  -0.000000   0.000000   0.000000   0.000000
   23  H  2  Y   -0.000000   1.098637   0.764062   1.495921   1.041548
   24  H  2  Z   -0.000000  -0.709630  -0.556955  -0.351384  -0.602115
   25  H  2 XX   -0.000000   0.536537   0.346816   0.368589   0.176357
   26  H  2 YY   -0.000000  -0.552746   0.002481  -0.806007  -0.403996
   27  H  2 ZZ   -0.000000   0.016210  -0.349297   0.437418   0.227639
   28  H  2 XY    0.477091  -0.000000   0.000000   0.000000   0.000000
   29  H  2 XZ   -0.100966  -0.000000   0.000000   0.000000   0.000000
   30  H  2 YZ   -0.000000   0.626835   0.803560   0.188063   0.488136
   31  O  3  S   -0.000000  -0.000000  -0.162943  -0.086797   0.000000
   32  O  3  S   -0.000000  -0.000000   0.087175   0.194636   0.000000
   33  O  3  S   -0.000000  -0.000000   0.321604   0.302781   0.000000
   34  O  3  S   -0.000000  -0.000000   2.926168   3.868272   0.000000
   35  O  3  X   -0.980685  -0.000000   0.000000   0.000000   0.000000
   36  O  3  Y   -0.000000   0.356321   0.000000   0.000000  -0.648055
   37  O  3  Z   -0.000000  -0.000000  -0.072680   0.767819   0.000000
   38  O  3  X    1.342201  -0.000000   0.000000   0.000000   0.000000
   39  O  3  Y   -0.000000   0.918257   0.000000   0.000000   2.153643
   40  O  3  Z   -0.000000  -0.000000  -0.359702  -1.819163   0.000000
   41  O  3  X   -0.325727  -0.000000   0.000000   0.000000   0.000000
   42  O  3  Y   -0.000000   1.291730   0.000000   0.000000   1.055584
   43  O  3  Z   -0.000000  -0.000000  -0.482660  -0.843807   0.000000
   44  O  3 XX   -0.000000  -0.000000   0.076726   0.057382   0.000000
   45  O  3 YY   -0.000000  -0.000000  -0.118181  -0.141374   0.000000
   46  O  3 ZZ   -0.000000  -0.000000   0.041456   0.083993   0.000000
   47  O  3 XY   -0.000000  -0.000000   0.000000   0.000000   0.000000
   48  O  3 XZ    0.014787  -0.000000   0.000000   0.000000   0.000000
   49  O  3 YZ   -0.000000   0.111454   0.000000   0.000000   0.214205
   50  O  3 XX   -0.000000  -0.000000  -0.727660  -0.671668   0.000000
   51  O  3 YY   -0.000000  -0.000000   1.569446   0.494153   0.000000
   52  O  3 ZZ   -0.000000  -0.000000  -0.841786   0.177515   0.000000
   53  O  3 XY   -0.000000  -0.000000   0.000000   0.000000   0.000000
   54  O  3 XZ   -0.265267  -0.000000   0.000000   0.000000   0.000000
   55  O  3 YZ   -0.000000  -0.318334   0.000000   0.000000  -0.893403
   56  O  3 XXX   0.190678  -0.000000   0.000000   0.000000   0.000000
   57  O  3 YYY  -0.000000   0.193907   0.000000   0.000000  -0.327903
   58  O  3 ZZZ  -0.000000  -0.000000  -0.072494   0.161338   0.000000
   59  O  3 XXY  -0.000000  -0.320414   0.000000   0.000000   0.705294
   60  O  3 XXZ  -0.000000  -0.000000   0.149802  -0.184822   0.000000
   61  O  3 YYX  -0.209767  -0.000000   0.000000   0.000000   0.000000
   62  O  3 YYZ  -0.000000  -0.000000  -0.052542  -0.031635   0.000000
   63  O  3 ZZX  -0.046054  -0.000000   0.000000   0.000000   0.000000
   64  O  3 ZZY  -0.000000   0.060260   0.000000   0.000000  -0.265366
   65  O  3 XYZ  -0.000000  -0.000000   0.000000   0.000000   0.000000

                     46         47         48         49         50
                    5.7115     5.7736     6.3710     6.5984     6.7181
                     A          A          A          A          A   
    1  H  1  S   -0.000000   0.074861  -0.000000  -0.000000   0.275696
    2  H  1  S   -0.000000  -0.230577  -0.000000  -0.000000   0.130500
    3  H  1  S   -0.000000  -0.008368  -0.000000  -0.000000   0.092575
    4  H  1  X   -0.012438   0.000000  -0.196542  -0.183626   0.000000
    5  H  1  Y   -0.000000   0.004155  -0.000000  -0.000000   0.428055
    6  H  1  Z   -0.000000   0.084121  -0.000000  -0.000000   0.187720
    7  H  1  X   -0.017414   0.000000  -0.078518  -0.121093   0.000000
    8  H  1  Y   -0.000000  -0.186138  -0.000000  -0.000000  -0.056485
    9  H  1  Z   -0.000000   0.037671  -0.000000  -0.000000  -0.100073
   10  H  1 XX   -0.000000   0.141435  -0.000000  -0.000000   0.015139
   11  H  1 YY   -0.000000  -0.224403  -0.000000  -0.000000   0.131969
   12  H  1 ZZ   -0.000000   0.082968  -0.000000  -0.000000  -0.147107
   13  H  1 XY   -0.114458   0.000000  -0.407715  -0.340656   0.000000
   14  H  1 XZ    0.121100   0.000000  -0.101474  -0.275175   0.000000
   15  H  1 YZ   -0.000000   0.179929  -0.000000  -0.000000   0.028834
   16  H  2  S   -0.000000   0.074861  -0.000000  -0.000000   0.275696
   17  H  2  S   -0.000000  -0.230577  -0.000000  -0.000000   0.130500
   18  H  2  S   -0.000000  -0.008368  -0.000000  -0.000000   0.092575
   19  H  2  X   -0.012438   0.000000   0.196542  -0.183626   0.000000
   20  H  2  Y   -0.000000  -0.004155  -0.000000  -0.000000  -0.428055
   21  H  2  Z   -0.000000   0.084121  -0.000000  -0.000000   0.187720
   22  H  2  X   -0.017414   0.000000   0.078518  -0.121093   0.000000
   23  H  2  Y   -0.000000   0.186138  -0.000000  -0.000000   0.056485
   24  H  2  Z   -0.000000   0.037671  -0.000000  -0.000000  -0.100073
   25  H  2 XX   -0.000000   0.141435  -0.000000  -0.000000   0.015139
   26  H  2 YY   -0.000000  -0.224403  -0.000000  -0.000000   0.131969
   27  H  2 ZZ   -0.000000   0.082968  -0.000000  -0.000000  -0.147107
   28  H  2 XY    0.114458   0.000000  -0.407715   0.340656   0.000000
   29  H  2 XZ    0.121100   0.000000   0.101474  -0.275175   0.000000
   30  H  2 YZ   -0.000000  -0.179929  -0.000000  -0.000000  -0.028834
   31  O  3  S   -0.000000   0.022367  -0.000000  -0.000000   0.760085
   32  O  3  S   -0.000000   0.041592  -0.000000  -0.000000   0.953179
   33  O  3  S   -0.000000  -0.009829  -0.000000  -0.000000  -0.699597
   34  O  3  S   -0.000000   0.330448  -0.000000  -0.000000  -0.924812
   35  O  3  X   -0.031080   0.000000  -0.000000  -0.221763   0.000000
   36  O  3  Y   -0.000000   0.000000  -0.000000  -0.000000   0.000000
   37  O  3  Z   -0.000000   0.144806  -0.000000  -0.000000  -0.203118
   38  O  3  X    0.054618   0.000000  -0.000000   0.425797   0.000000
   39  O  3  Y   -0.000000   0.000000  -0.000000  -0.000000   0.000000
   40  O  3  Z   -0.000000  -0.302570  -0.000000  -0.000000   0.406986
   41  O  3  X    0.008055   0.000000  -0.000000   0.086875   0.000000
   42  O  3  Y   -0.000000   0.000000  -0.000000  -0.000000   0.000000
   43  O  3  Z   -0.000000  -0.146758  -0.000000  -0.000000   0.127100
   44  O  3 XX   -0.000000  -0.075590  -0.000000  -0.000000   0.505740
   45  O  3 YY   -0.000000  -0.071503  -0.000000  -0.000000  -0.314297
   46  O  3 ZZ   -0.000000   0.147093  -0.000000  -0.000000  -0.191444
   47  O  3 XY   -0.000000   0.000000  -0.467931  -0.000000   0.000000
   48  O  3 XZ   -0.084740   0.000000  -0.000000  -0.473126   0.000000
   49  O  3 YZ   -0.000000   0.000000  -0.000000  -0.000000   0.000000
   50  O  3 XX   -0.000000  -0.027043  -0.000000  -0.000000   0.021093
   51  O  3 YY   -0.000000  -0.153036  -0.000000  -0.000000  -0.140387
   52  O  3 ZZ   -0.000000   0.180079  -0.000000  -0.000000   0.119294
   53  O  3 XY   -0.000000   0.000000  -0.196092  -0.000000   0.000000
   54  O  3 XZ   -0.025908   0.000000  -0.000000   0.020552   0.000000
   55  O  3 YZ   -0.000000   0.000000  -0.000000  -0.000000   0.000000
   56  O  3 XXX  -0.640416   0.000000  -0.000000  -0.729967   0.000000
   57  O  3 YYY  -0.000000   0.000000  -0.000000  -0.000000   0.000000
   58  O  3 ZZZ  -0.000000  -0.829841  -0.000000  -0.000000  -0.507904
   59  O  3 XXY  -0.000000   0.000000  -0.000000  -0.000000   0.000000
   60  O  3 XXZ  -0.000000   0.997346  -0.000000  -0.000000  -0.333845
   61  O  3 YYX  -0.233373   0.000000  -0.000000   1.065857   0.000000
   62  O  3 YYZ  -0.000000   0.116003  -0.000000  -0.000000   1.015270
   63  O  3 ZZX   1.092581   0.000000  -0.000000  -0.086503   0.000000
   64  O  3 ZZY  -0.000000   0.000000  -0.000000  -0.000000   0.000000
   65  O  3 XYZ  -0.000000   0.000000   0.948902  -0.000000   0.000000

                     51         52         53         54         55
                    6.8455     6.9207     6.9776     7.1493     7.3169
                     A          A          A          A          A   
    1  H  1  S   -0.001528   0.000000  -0.007521   0.000000   0.275703
    2  H  1  S    0.480093   0.000000  -0.664895   0.000000   2.043517
    3  H  1  S   -0.049459   0.000000  -0.067905   0.000000   0.058489
    4  H  1  X   -0.000000  -0.068451  -0.000000  -0.127628   0.000000
    5  H  1  Y    0.296950   0.000000  -0.119334   0.000000   0.764223
    6  H  1  Z   -0.114413   0.000000  -0.066851   0.000000   0.254231
    7  H  1  X   -0.000000  -0.219446  -0.000000  -0.265668   0.000000
    8  H  1  Y    0.318231   0.000000  -0.410775   0.000000   0.856876
    9  H  1  Z    0.033274   0.000000   0.123404   0.000000   0.468442
   10  H  1 XX   -0.146621   0.000000   0.104997   0.000000  -0.265859
   11  H  1 YY    0.525043   0.000000  -0.203678   0.000000   0.413389
   12  H  1 ZZ   -0.378422   0.000000   0.098681   0.000000  -0.147530
   13  H  1 XY   -0.000000  -0.257151  -0.000000  -0.286534   0.000000
   14  H  1 XZ   -0.000000  -0.070251  -0.000000  -0.157456   0.000000
   15  H  1 YZ   -0.082850   0.000000   0.083040   0.000000   0.298709
   16  H  2  S    0.001528   0.000000  -0.007521   0.000000  -0.275703
   17  H  2  S   -0.480093   0.000000  -0.664895   0.000000  -2.043517
   18  H  2  S    0.049459   0.000000  -0.067905   0.000000  -0.058489
   19  H  2  X   -0.000000  -0.068451  -0.000000   0.127628   0.000000
   20  H  2  Y    0.296950   0.000000   0.119334   0.000000   0.764223
   21  H  2  Z    0.114413   0.000000  -0.066851   0.000000  -0.254231
   22  H  2  X   -0.000000  -0.219446  -0.000000   0.265668   0.000000
   23  H  2  Y    0.318231   0.000000   0.410775   0.000000   0.856876
   24  H  2  Z   -0.033274   0.000000   0.123404   0.000000  -0.468442
   25  H  2 XX    0.146621   0.000000   0.104997   0.000000   0.265859
   26  H  2 YY   -0.525043   0.000000  -0.203678   0.000000  -0.413389
   27  H  2 ZZ    0.378422   0.000000   0.098681   0.000000   0.147530
   28  H  2 XY   -0.000000   0.257151  -0.000000  -0.286534   0.000000
   29  H  2 XZ   -0.000000  -0.070251  -0.000000   0.157456   0.000000
   30  H  2 YZ   -0.082850   0.000000  -0.083040   0.000000   0.298709
   31  O  3  S   -0.000000   0.000000  -0.272589   0.000000   0.000000
   32  O  3  S   -0.000000   0.000000  -0.353480   0.000000   0.000000
   33  O  3  S   -0.000000   0.000000   0.207872   0.000000   0.000000
   34  O  3  S   -0.000000   0.000000   1.361267   0.000000   0.000000
   35  O  3  X   -0.000000  -0.105795  -0.000000   0.000000   0.000000
   36  O  3  Y   -0.150128   0.000000  -0.000000   0.000000  -0.858493
   37  O  3  Z   -0.000000   0.000000   0.151258   0.000000   0.000000
   38  O  3  X   -0.000000   0.222456  -0.000000   0.000000   0.000000
   39  O  3  Y    0.682733   0.000000  -0.000000   0.000000   2.464202
   40  O  3  Z   -0.000000   0.000000  -0.389913   0.000000   0.000000
   41  O  3  X   -0.000000   0.196191  -0.000000   0.000000   0.000000
   42  O  3  Y    0.035014   0.000000  -0.000000   0.000000   1.489796
   43  O  3  Z   -0.000000   0.000000  -0.537339   0.000000   0.000000
   44  O  3 XX   -0.000000   0.000000   0.832257   0.000000   0.000000
   45  O  3 YY   -0.000000   0.000000   0.245031   0.000000   0.000000
   46  O  3 ZZ   -0.000000   0.000000  -1.077288   0.000000   0.000000
   47  O  3 XY   -0.000000   0.000000  -0.000000   1.116405   0.000000
   48  O  3 XZ   -0.000000   1.076764  -0.000000   0.000000   0.000000
   49  O  3 YZ   -0.385591   0.000000  -0.000000   0.000000   0.681094
   50  O  3 XX   -0.000000   0.000000  -0.686949   0.000000   0.000000
   51  O  3 YY   -0.000000   0.000000  -0.050064   0.000000   0.000000
   52  O  3 ZZ   -0.000000   0.000000   0.737013   0.000000   0.000000
   53  O  3 XY   -0.000000   0.000000  -0.000000  -1.062182   0.000000
   54  O  3 XZ   -0.000000  -0.748982  -0.000000   0.000000   0.000000
   55  O  3 YZ   -0.449501   0.000000  -0.000000   0.000000  -1.751122
   56  O  3 XXX  -0.000000  -0.428916  -0.000000   0.000000   0.000000
   57  O  3 YYY  -0.769451   0.000000  -0.000000   0.000000   0.507763
   58  O  3 ZZZ  -0.000000   0.000000   0.076061   0.000000   0.000000
   59  O  3 XXY  -0.081375   0.000000  -0.000000   0.000000  -0.890747
   60  O  3 XXZ  -0.000000   0.000000   0.268905   0.000000   0.000000
   61  O  3 YYX  -0.000000   0.517817  -0.000000   0.000000   0.000000
   62  O  3 YYZ  -0.000000   0.000000  -0.370952   0.000000   0.000000
   63  O  3 ZZX  -0.000000   0.057634  -0.000000   0.000000   0.000000
   64  O  3 ZZY   1.113702   0.000000  -0.000000   0.000000   0.209512
   65  O  3 XYZ  -0.000000   0.000000  -0.000000   0.516563   0.000000

                     56         57         58
                    7.5355     7.6476    10.7377
                     A          A          A   
    1  H  1  S   -0.283585  -0.073030  -0.003055
    2  H  1  S   -0.709590   0.922389  -2.115775
    3  H  1  S   -0.075078  -0.060610   0.156093
    4  H  1  X    0.000000  -0.000000   0.000000
    5  H  1  Y   -0.198597   0.314219  -0.546332
    6  H  1  Z   -0.183445   0.295263  -0.312577
    7  H  1  X    0.000000  -0.000000   0.000000
    8  H  1  Y   -0.221802   0.449463  -1.124349
    9  H  1  Z   -0.220304   0.370060  -0.517695
   10  H  1 XX   -0.040767  -0.326394   0.386357
   11  H  1 YY    0.150323   0.222434  -0.530400
   12  H  1 ZZ   -0.109556   0.103960   0.144043
   13  H  1 XY    0.000000  -0.000000   0.000000
   14  H  1 XZ    0.000000  -0.000000   0.000000
   15  H  1 YZ   -0.015829   0.533868  -0.547412
   16  H  2  S   -0.283585   0.073030  -0.003055
   17  H  2  S   -0.709590  -0.922389  -2.115775
   18  H  2  S   -0.075078   0.060610   0.156093
   19  H  2  X    0.000000  -0.000000   0.000000
   20  H  2  Y    0.198597   0.314219   0.546332
   21  H  2  Z   -0.183445  -0.295263  -0.312577
   22  H  2  X    0.000000  -0.000000   0.000000
   23  H  2  Y    0.221802   0.449463   1.124349
   24  H  2  Z   -0.220304  -0.370060  -0.517695
   25  H  2 XX   -0.040767   0.326394   0.386357
   26  H  2 YY    0.150323  -0.222434  -0.530400
   27  H  2 ZZ   -0.109556  -0.103960   0.144043
   28  H  2 XY    0.000000  -0.000000   0.000000
   29  H  2 XZ    0.000000  -0.000000   0.000000
   30  H  2 YZ    0.015829   0.533868   0.547412
   31  O  3  S   -0.180733  -0.000000   2.853320
   32  O  3  S   -0.352736  -0.000000   4.078133
   33  O  3  S   -0.073268  -0.000000  -2.675658
   34  O  3  S    1.683023  -0.000000   1.622720
   35  O  3  X    0.000000  -0.000000   0.000000
   36  O  3  Y    0.000000  -0.459682   0.000000
   37  O  3  Z    0.125650  -0.000000   0.333184
   38  O  3  X    0.000000  -0.000000   0.000000
   39  O  3  Y    0.000000   1.711671   0.000000
   40  O  3  Z   -0.208961  -0.000000  -1.311386
   41  O  3  X    0.000000  -0.000000   0.000000
   42  O  3  Y    0.000000   0.214012   0.000000
   43  O  3  Z   -0.349064  -0.000000  -0.550052
   44  O  3 XX    0.709797  -0.000000  -0.039208
   45  O  3 YY   -1.185770  -0.000000   0.060793
   46  O  3 ZZ    0.475973  -0.000000  -0.021585
   47  O  3 XY    0.000000  -0.000000   0.000000
   48  O  3 XZ    0.000000  -0.000000   0.000000
   49  O  3 YZ    0.000000  -0.948200   0.000000
   50  O  3 XX   -0.766307  -0.000000  -0.814907
   51  O  3 YY    1.325924  -0.000000   1.136917
   52  O  3 ZZ   -0.559618  -0.000000  -0.322010
   53  O  3 XY    0.000000  -0.000000   0.000000
   54  O  3 XZ    0.000000  -0.000000   0.000000
   55  O  3 YZ    0.000000   0.189569   0.000000
   56  O  3 XXX   0.000000  -0.000000   0.000000
   57  O  3 YYY   0.000000   0.663572   0.000000
   58  O  3 ZZZ   0.284072  -0.000000   0.345730
   59  O  3 XXY   0.000000  -0.389498   0.000000
   60  O  3 XXZ   0.120577  -0.000000   0.226939
   61  O  3 YYX   0.000000  -0.000000   0.000000
   62  O  3 YYZ  -0.501699  -0.000000  -0.690784
   63  O  3 ZZX   0.000000  -0.000000   0.000000
   64  O  3 ZZY   0.000000  -0.500778   0.000000
   65  O  3 XYZ   0.000000  -0.000000   0.000000
 ...... END OF RHF CALCULATION ......
 CPU     0: STEP CPU TIME=     0.10 TOTAL CPU TIME=        0.2 (    0.0 MIN)
 TOTAL WALL CLOCK TIME=        0.2 SECONDS, CPU UTILIZATION IS  91.67%

     ----------------------------------------------------------------
     PROPERTY VALUES FOR THE RHF   SELF-CONSISTENT FIELD WAVEFUNCTION
     ----------------------------------------------------------------

          -----------------
          ENERGY COMPONENTS
          -----------------

         WAVEFUNCTION NORMALIZATION =       1.0000000000

                ONE ELECTRON ENERGY =    -120.7155130369
                TWO ELECTRON ENERGY =      36.8828988595
           NUCLEAR REPULSION ENERGY =       7.8375569539
                                      ------------------
                       TOTAL ENERGY =     -75.9950572235

 ELECTRON-ELECTRON POTENTIAL ENERGY =      36.8828988595
  NUCLEUS-ELECTRON POTENTIAL ENERGY =    -196.2082486277
   NUCLEUS-NUCLEUS POTENTIAL ENERGY =       7.8375569539
                                      ------------------
             TOTAL POTENTIAL ENERGY =    -151.4877928143
               TOTAL KINETIC ENERGY =      75.4927355908
                 VIRIAL RATIO (V/T) =       2.0066539069

          ---------------------------------------
          MULLIKEN AND LOWDIN POPULATION ANALYSES
          ---------------------------------------

     ATOMIC MULLIKEN POPULATION IN EACH MOLECULAR ORBITAL

                      1          2          3          4          5

                  2.000000   2.000000   2.000000   2.000000   2.000000

    1             0.000361   0.126976   0.409951   0.133497   0.024663
    2             0.000361   0.126976   0.409951   0.133497   0.024663
    3             1.999279   1.746048   1.180098   1.733007   1.950674

               ----- POPULATIONS IN EACH AO -----
                             MULLIKEN      LOWDIN
              1  H  1  S      0.19081     0.15944
              2  H  1  S      0.36280     0.22690
              3  H  1  S      0.07268     0.11507
              4  H  1  X      0.00194     0.00390
              5  H  1  Y      0.00665     0.01289
              6  H  1  Z      0.00247     0.00545
              7  H  1  X      0.02072     0.05912
              8  H  1  Y      0.01629     0.06202
              9  H  1  Z      0.01619     0.05572
             10  H  1 XX      0.00069     0.05895
             11  H  1 YY      0.00093     0.10973
             12  H  1 ZZ      0.00161     0.06795
             13  H  1 XY      0.00040     0.01012
             14  H  1 XZ      0.00127     0.00234
             15  H  1 YZ      0.00000     0.01230
             16  H  2  S      0.19081     0.15944
             17  H  2  S      0.36280     0.22690
             18  H  2  S      0.07268     0.11507
             19  H  2  X      0.00194     0.00390
             20  H  2  Y      0.00665     0.01289
             21  H  2  Z      0.00247     0.00545
             22  H  2  X      0.02072     0.05912
             23  H  2  Y      0.01629     0.06202
             24  H  2  Z      0.01619     0.05572
             25  H  2 XX      0.00069     0.05895
             26  H  2 YY      0.00093     0.10973
             27  H  2 ZZ      0.00161     0.06795
             28  H  2 XY      0.00040     0.01012
             29  H  2 XZ      0.00127     0.00234
             30  H  2 YZ      0.00000     0.01230
             31  O  3  S      1.95080     1.57905
             32  O  3  S      0.99957     0.53388
[...]
   40  O  3  Z   -0.001404   0.064748   0.000000   0.384520   0.000000
   41  O  3  X    0.000000   0.000000   0.000000   0.000000   0.375105
   42  O  3  Y    0.000000   0.000000  -0.153046   0.000000   0.000000
   43  O  3  Z   -0.000134   0.012564   0.000000   0.279472   0.000000
   44  O  3 XX    0.000075   0.003964   0.000000   0.005582   0.000000
   45  O  3 YY   -0.000055  -0.003020   0.000000  -0.000029   0.000000
   46  O  3 ZZ   -0.000020  -0.000944   0.000000  -0.005553   0.000000
   47  O  3 XY    0.000000   0.000000   0.000000   0.000000   0.000000
   48  O  3 XZ    0.000000   0.000000   0.000000   0.000000  -0.005296
   49  O  3 YZ    0.000000   0.000000   0.013097   0.000000   0.000000
   50  O  3 XX   -0.000495   0.008025   0.000000   0.013977   0.000000
   51  O  3 YY    0.000343  -0.005457   0.000000   0.004032   0.000000
   52  O  3 ZZ    0.000152  -0.002568   0.000000  -0.018008   0.000000
   53  O  3 XY    0.000000   0.000000   0.000000   0.000000   0.000000
   54  O  3 XZ    0.000000   0.000000   0.000000   0.000000  -0.018035
   55  O  3 YZ    0.000000   0.000000   0.021360   0.000000   0.000000
   56  O  3 XXX   0.000000   0.000000   0.000000   0.000000  -0.004144
   57  O  3 YYY   0.000000   0.000000  -0.002606   0.000000   0.000000
   58  O  3 ZZZ  -0.000001  -0.000920   0.000000   0.000574   0.000000
   59  O  3 XXY   0.000000   0.000000   0.003450   0.000000   0.000000
   60  O  3 XXZ   0.000068  -0.001861   0.000000  -0.003133   0.000000
   61  O  3 YYX   0.000000   0.000000   0.000000   0.000000   0.003935
   62  O  3 YYZ  -0.000068   0.003096   0.000000   0.002363   0.000000
   63  O  3 ZZX   0.000000   0.000000   0.000000   0.000000   0.001625
   64  O  3 ZZY   0.000000   0.000000   0.000046   0.000000   0.000000
   65  O  3 XYZ   0.000000   0.000000   0.000000   0.000000   0.000000

                      6          7          8          9         10
                    0.1442     0.2052     0.5536     0.6064     0.6666
                     A          A          A          A          A   
    1  H  1  S    0.026098  -0.014143   0.098889  -0.080759   0.034435
    2  H  1  S    0.314499  -0.154113   1.652059  -1.616591  -2.308244
    3  H  1  S    0.932591  -1.793904  -0.514977   0.525569  -0.516187
    4  H  1  X    0.000000   0.000000   0.000000   0.000000   0.000000
    5  H  1  Y   -0.005401   0.011929   0.053003  -0.036152  -0.022440
    6  H  1  Z   -0.000648   0.011290   0.032397  -0.021857  -0.016073
    7  H  1  X    0.000000   0.000000   0.000000   0.000000   0.000000
    8  H  1  Y    0.156958  -0.140402   0.075195   0.142940  -1.001871
    9  H  1  Z    0.114982  -0.113905  -0.008484  -0.124763  -0.577115
   10  H  1 XX   -0.009322   0.007443  -0.012011   0.017727   0.041837
   11  H  1 YY    0.005588  -0.008485   0.019098  -0.002308  -0.047899
   12  H  1 ZZ    0.003734   0.001042  -0.007087  -0.015419   0.006062
   13  H  1 XY    0.000000   0.000000   0.000000   0.000000   0.000000
   14  H  1 XZ    0.000000   0.000000   0.000000   0.000000   0.000000
   15  H  1 YZ    0.017816  -0.009321   0.031975  -0.016912  -0.059926
   16  H  2  S    0.026098   0.014143  -0.098889  -0.080759   0.034435
   17  H  2  S    0.314499   0.154113  -1.652059  -1.616591  -2.308244
   18  H  2  S    0.932591   1.793904   0.514977   0.525569  -0.516187
   19  H  2  X    0.000000   0.000000   0.000000   0.000000   0.000000
   20  H  2  Y    0.005401   0.011929   0.053003   0.036152   0.022440
   21  H  2  Z   -0.000648  -0.011290  -0.032397  -0.021857  -0.016073
   22  H  2  X    0.000000   0.000000   0.000000   0.000000   0.000000
   23  H  2  Y   -0.156958  -0.140402   0.075195  -0.142940   1.001871
   24  H  2  Z    0.114982   0.113905   0.008484  -0.124763  -0.577115
   25  H  2 XX   -0.009322  -0.007443   0.012011   0.017727   0.041837
   26  H  2 YY    0.005588   0.008485  -0.019098  -0.002308  -0.047899
   27  H  2 ZZ    0.003734  -0.001042   0.007087  -0.015419   0.006062
   28  H  2 XY    0.000000   0.000000   0.000000   0.000000   0.000000
   29  H  2 XZ    0.000000   0.000000   0.000000   0.000000   0.000000
   30  H  2 YZ   -0.017816  -0.009321   0.031975   0.016912   0.059926
   31  O  3  S    0.026970   0.000000   0.000000   0.027311   0.043192
   32  O  3  S   -0.108906   0.000000   0.000000   0.205120   0.074794
   33  O  3  S   -0.040013   0.000000   0.000000   0.023877  -0.037184
   34  O  3  S   -1.628745   0.000000   0.000000   1.162741   4.778781
   35  O  3  X    0.000000   0.000000   0.000000   0.000000   0.000000
   36  O  3  Y    0.000000  -0.132050   0.099094   0.000000   0.000000
   37  O  3  Z    0.074051   0.000000   0.000000  -0.073350   0.249991
   38  O  3  X    0.000000   0.000000   0.000000   0.000000   0.000000
   39  O  3  Y    0.000000  -0.201867   0.302910   0.000000   0.000000
   40  O  3  Z    0.193590   0.000000   0.000000  -0.155684   0.099078
   41  O  3  X    0.000000   0.000000   0.000000   0.000000   0.000000
   42  O  3  Y    0.000000  -0.858578   1.390445   0.000000   0.000000
   43  O  3  Z    0.466363   0.000000   0.000000  -0.840668  -2.663775
   44  O  3 XX   -0.001591   0.000000   0.000000   0.015713   0.026296
   45  O  3 YY    0.002518   0.000000   0.000000  -0.022314  -0.009404
   46  O  3 ZZ   -0.000927   0.000000   0.000000   0.006602  -0.016891
   47  O  3 XY    0.000000   0.000000   0.000000   0.000000   0.000000
   48  O  3 XZ    0.000000   0.000000   0.000000   0.000000   0.000000
   49  O  3 YZ    0.000000  -0.002715   0.027313   0.000000   0.000000
   50  O  3 XX    0.051353   0.000000   0.000000  -0.052181  -0.282848
   51  O  3 YY   -0.044317   0.000000   0.000000   0.066664   0.199886
   52  O  3 ZZ   -0.007036   0.000000   0.000000  -0.014483   0.082962
   53  O  3 XY    0.000000   0.000000   0.000000   0.000000   0.000000
   54  O  3 XZ    0.000000   0.000000   0.000000   0.000000   0.000000
   55  O  3 YZ    0.000000   0.059942  -0.161667   0.000000   0.000000
   56  O  3 XXX   0.000000   0.000000   0.000000   0.000000   0.000000
   57  O  3 YYY   0.000000  -0.001670   0.003621   0.000000   0.000000
   58  O  3 ZZZ  -0.004490   0.000000   0.000000   0.012188   0.009901
   59  O  3 XXY   0.000000   0.002913  -0.022668   0.000000   0.000000
   60  O  3 XXZ  -0.004448   0.000000   0.000000   0.009909   0.018070
   61  O  3 YYX   0.000000   0.000000   0.000000   0.000000   0.000000
   62  O  3 YYZ   0.010472   0.000000   0.000000  -0.026262  -0.031353
   63  O  3 ZZX   0.000000   0.000000   0.000000   0.000000   0.000000
   64  O  3 ZZY   0.000000  -0.000673   0.017810   0.000000   0.000000
   65  O  3 XYZ   0.000000   0.000000   0.000000   0.000000   0.000000

                     11         12         13         14         15
                    0.7874     0.8049     0.8113     0.8615     0.9638
                     A          A          A          A          A   
    1  H  1  S    0.000000  -0.024873  -0.009591   0.000000   0.000000
    2  H  1  S    0.000000   1.712605   0.873364   0.000000   0.000000
    3  H  1  S    0.000000   1.517146  -0.289610   0.000000   0.000000
    4  H  1  X    0.009695   0.000000   0.000000   0.058158   0.072926
    5  H  1  Y    0.000000   0.045760  -0.021998   0.000000   0.000000
    6  H  1  Z    0.000000   0.032419   0.034684   0.000000   0.000000
    7  H  1  X    0.033019   0.000000   0.000000  -0.856166  -1.025380
    8  H  1  Y    0.000000   0.953365   0.475231   0.000000   0.000000
    9  H  1  Z    0.000000   0.767634  -0.753085   0.000000   0.000000
   10  H  1 XX    0.000000  -0.053063  -0.003583   0.000000   0.000000
   11  H  1 YY    0.000000   0.055358   0.051221   0.000000   0.000000
   12  H  1 ZZ    0.000000  -0.002295  -0.047639   0.000000   0.000000
   13  H  1 XY    0.020989   0.000000   0.000000  -0.016604  -0.042002
   14  H  1 XZ    0.013436   0.000000   0.000000  -0.028180  -0.003191
   15  H  1 YZ    0.000000   0.089668  -0.033504   0.000000   0.000000
   16  H  2  S    0.000000   0.024873  -0.009591   0.000000   0.000000
   17  H  2  S    0.000000  -1.712605   0.873364   0.000000   0.000000
   18  H  2  S    0.000000  -1.517146  -0.289610   0.000000   0.000000
   19  H  2  X    0.009695   0.000000   0.000000  -0.058158   0.072926
   20  H  2  Y    0.000000   0.045760   0.021998   0.000000   0.000000
   21  H  2  Z    0.000000  -0.032419   0.034684   0.000000   0.000000
   22  H  2  X    0.033019   0.000000   0.000000   0.856166  -1.025380
   23  H  2  Y    0.000000   0.953365  -0.475231   0.000000   0.000000
   24  H  2  Z    0.000000  -0.767634  -0.753085   0.000000   0.000000
   25  H  2 XX    0.000000   0.053063  -0.003583   0.000000   0.000000
   26  H  2 YY    0.000000  -0.055358   0.051221   0.000000   0.000000
   27  H  2 ZZ    0.000000   0.002295  -0.047639   0.000000   0.000000
   28  H  2 XY   -0.020989   0.000000   0.000000  -0.016604   0.042002
   29  H  2 XZ    0.013436   0.000000   0.000000   0.028180  -0.003191
   30  H  2 YZ    0.000000   0.089668   0.033504   0.000000   0.000000
   31  O  3  S    0.000000   0.000000  -0.020037   0.000000   0.000000
   32  O  3  S    0.000000   0.000000  -0.137249   0.000000   0.000000
   33  O  3  S    0.000000   0.000000  -0.026650   0.000000   0.000000
   34  O  3  S    0.000000   0.000000  -0.429759   0.000000   0.000000
   35  O  3  X    0.257266   0.000000   0.000000   0.000000   0.035909
   36  O  3  Y    0.000000  -0.278357   0.000000   0.000000   0.000000
   37  O  3  Z    0.000000   0.000000   0.058869   0.000000   0.000000
   38  O  3  X    0.768248   0.000000   0.000000   0.000000   0.111877
   39  O  3  Y    0.000000   0.057437   0.000000   0.000000   0.000000
   40  O  3  Z    0.000000   0.000000   0.148203   0.000000   0.000000
   41  O  3  X   -1.221070   0.000000   0.000000   0.000000   1.116960
   42  O  3  Y    0.000000   3.011092   0.000000   0.000000   0.000000
   43  O  3  Z    0.000000   0.000000   1.279392   0.000000   0.000000
   44  O  3 XX    0.000000   0.000000  -0.009349   0.000000   0.000000
   45  O  3 YY    0.000000   0.000000  -0.027264   0.000000   0.000000
   46  O  3 ZZ    0.000000   0.000000   0.036613   0.000000   0.000000
   47  O  3 XY    0.000000   0.000000   0.000000   0.028662   0.000000
   48  O  3 XZ   -0.009813   0.000000   0.000000   0.000000   0.023944
   49  O  3 YZ    0.000000   0.022079   0.000000   0.000000   0.000000
   50  O  3 XX    0.000000   0.000000  -0.006120   0.000000   0.000000
   51  O  3 YY    0.000000   0.000000   0.160323   0.000000   0.000000
   52  O  3 ZZ    0.000000   0.000000  -0.154203   0.000000   0.000000
   53  O  3 XY    0.000000   0.000000   0.000000  -0.044858   0.000000
   54  O  3 XZ    0.039851   0.000000   0.000000   0.000000  -0.005629
   55  O  3 YZ    0.000000  -0.449164   0.000000   0.000000   0.000000
   56  O  3 XXX   0.007983   0.000000   0.000000   0.000000  -0.018267
   57  O  3 YYY   0.000000   0.000765   0.000000   0.000000   0.000000
   58  O  3 ZZZ   0.000000   0.000000   0.017901   0.000000   0.000000
   59  O  3 XXY   0.000000  -0.027996   0.000000   0.000000   0.000000
   60  O  3 XXZ   0.000000   0.000000  -0.012559   0.000000   0.000000
   61  O  3 YYX  -0.007368   0.000000   0.000000   0.000000   0.018436
   62  O  3 YYZ   0.000000   0.000000  -0.011458   0.000000   0.000000
   63  O  3 ZZX  -0.003342   0.000000   0.000000   0.000000   0.006072
   64  O  3 ZZY   0.000000   0.026970   0.000000   0.000000   0.000000
   65  O  3 XYZ   0.000000   0.000000   0.000000   0.017723   0.000000

     ----------------------------------------------------------------
     PROPERTY VALUES FOR THE RHF   SELF-CONSISTENT FIELD WAVEFUNCTION
     ----------------------------------------------------------------

          -----------------
          ENERGY COMPONENTS
          -----------------

         WAVEFUNCTION NORMALIZATION =       1.0000000000

                ONE ELECTRON ENERGY =    -123.4039070859
                TWO ELECTRON ENERGY =      37.9924137350
           NUCLEAR REPULSION ENERGY =       9.3537236490
                                      ------------------
                       TOTAL ENERGY =     -76.0577697019

 ELECTRON-ELECTRON POTENTIAL ENERGY =      37.9924137350
  NUCLEUS-ELECTRON POTENTIAL ENERGY =    -199.4748078210
   NUCLEUS-NUCLEUS POTENTIAL ENERGY =       9.3537236490
                                      ------------------
             TOTAL POTENTIAL ENERGY =    -152.1286704369
               TOTAL KINETIC ENERGY =      76.0709007350
                 VIRIAL RATIO (V/T) =       1.9998273843

          ---------------------------------------
          MULLIKEN AND LOWDIN POPULATION ANALYSES
          ---------------------------------------

     ATOMIC MULLIKEN POPULATION IN EACH MOLECULAR ORBITAL

                      1          2          3          4          5

                  2.000000   2.000000   2.000000   2.000000   2.000000

    1             0.000249   0.190996   0.396698   0.135713   0.038661
    2             0.000249   0.190996   0.396698   0.135713   0.038661
    3             1.999502   1.618009   1.206605   1.728575   1.922679

               ----- POPULATIONS IN EACH AO -----
                             MULLIKEN      LOWDIN
              1  H  1  S      0.26124     0.20822
              2  H  1  S      0.37338     0.21188
              3  H  1  S      0.03694     0.08381
              4  H  1  X      0.00465     0.01026
              5  H  1  Y      0.00962     0.01820
              6  H  1  Z      0.00720     0.01527
              7  H  1  X      0.03088     0.09376
              8  H  1  Y      0.00921     0.06347
              9  H  1  Z      0.02181     0.08698
             10  H  1 XX      0.00133     0.06405
             11  H  1 YY      0.00095     0.10925
             12  H  1 ZZ      0.00210     0.09309
             13  H  1 XY      0.00103     0.01656
             14  H  1 XZ      0.00198     0.00872
             15  H  1 YZ      0.00000     0.01885
             16  H  2  S      0.26124     0.20822
             17  H  2  S      0.37338     0.21188
             18  H  2  S      0.03694     0.08381
             19  H  2  X      0.00465     0.01026
             20  H  2  Y      0.00962     0.01820
             21  H  2  Z      0.00720     0.01527
             22  H  2  X      0.03088     0.09376
             23  H  2  Y      0.00921     0.06347
             24  H  2  Z      0.02181     0.08698
             25  H  2 XX      0.00133     0.06405
             26  H  2 YY      0.00095     0.10925
             27  H  2 ZZ      0.00210     0.09309
             28  H  2 XY      0.00103     0.01656
             29  H  2 XZ      0.00198     0.00872
             30  H  2 YZ      0.00000     0.01885
             31  O  3  S      1.95083     1.55988
             32  O  3  S      0.99424     0.51853
             33  O  3  S      0.22904     0.34591
             34  O  3  S      0.59504     0.24017
             35  O  3  X      0.50668     0.43448
             36  O  3  Y      0.34653     0.27689
             37  O  3  Z      0.41824     0.35044
             38  O  3  X      0.82954     0.44368
             39  O  3  Y      0.60259     0.31317
             40  O  3  Z      0.71339     0.38689
             41  O  3  X      0.58444     0.42690
             42  O  3  Y      0.24501     0.26238
             43  O  3  Z      0.44005     0.37334
             44  O  3 XX      0.00027     0.12036
             45  O  3 YY      0.00041     0.11524
             46  O  3 ZZ      0.00000     0.11567
             47  O  3 XY      0.00023     0.00000
             48  O  3 XZ      0.00225     0.00012
             49  O  3 YZ      0.00000     0.00177
             50  O  3 XX      0.00193     0.10751
             51  O  3 YY      0.00210     0.10926
             52  O  3 ZZ      0.00000     0.11247
             53  O  3 XY      0.00165     0.00000
             54  O  3 XZ      0.00996     0.00012
             55  O  3 YZ      0.00000     0.01686
             56  O  3 XXX     0.00012     0.23520
             57  O  3 YYY     0.00051     0.16711
             58  O  3 ZZZ     0.00001     0.19467
             59  O  3 XXY     0.00002     0.06682
             60  O  3 XXZ    -0.00000     0.08848
             61  O  3 YYX     0.00000     0.09855
             62  O  3 YYZ     0.00027     0.11515
             63  O  3 ZZX     0.00000     0.10232
             64  O  3 ZZY     0.00000     0.09492
             65  O  3 XYZ     0.00000     0.00000

          ----- MULLIKEN ATOMIC OVERLAP POPULATIONS -----
          (OFF-DIAGONAL ELEMENTS NEED TO BE MULTIPLIED BY 2)

             1           2           3

    1    0.4486982
    2   -0.0443434   0.4486982
    3    0.3579609   0.3579609   7.7594467

          TOTAL MULLIKEN AND LOWDIN ATOMIC POPULATIONS
       ATOM         MULL.POP.    CHARGE          LOW.POP.     CHARGE
    1 H             0.762316    0.237684         1.102365   -0.102365
    2 H             0.762316    0.237684         1.102365   -0.102365
    3 O             8.475369   -0.475369         7.795270    0.204730

          MULLIKEN SPHERICAL HARMONIC POPULATIONS
       ATOM           S       P       D      F      G      H      I    TOTAL
    1 H             0.67    0.08    0.01   0.00   0.00   0.00   0.00    0.76
    2 H             0.67    0.08    0.01   0.00   0.00   0.00   0.00    0.76
    3 O             3.77    4.69    0.02   0.00   0.00   0.00   0.00    8.48

          -------------------------------
          BOND ORDER AND VALENCE ANALYSIS     BOND ORDER THRESHOLD=0.050
          -------------------------------

                   BOND                       BOND                       BOND
  ATOM PAIR DIST  ORDER      ATOM PAIR DIST  ORDER      ATOM PAIR DIST  ORDER
    1   3  0.941  0.998        2   3  0.941  0.998

                       TOTAL       BONDED        FREE
      ATOM            VALENCE     VALENCE     VALENCE
    1 H                 1.012       1.012       0.000
    2 H                 1.012       1.012      -0.000
    3 O                 1.996       1.996      -0.000

          ---------------------
          ELECTROSTATIC MOMENTS
          ---------------------

 POINT   1           X           Y           Z (BOHR)    CHARGE
                 0.000000   -0.000000    0.908369       -0.00 (A.U.)
         DX          DY          DZ         /D/  (DEBYE)
    -0.000000    0.000000   -1.987804    1.987804
 ...... END OF PROPERTY EVALUATION ......
 CPU     0: STEP CPU TIME=     0.01 TOTAL CPU TIME=        3.9 (    0.1 MIN)
 TOTAL WALL CLOCK TIME=        3.9 SECONDS, CPU UTILIZATION IS  97.47%
  $VIB   
          IVIB=   0 IATOM=   0 ICOORD=   0 E=      -76.0577697019
  0.000000000E+00 0.000000000E+00 0.000000000E+00 0.000000000E+00 0.000000000E+00
  0.000000000E+00 0.000000000E+00 0.000000000E+00 0.000000000E+00
 -5.283640635E-17 3.349949582E-14-1.987804122E+00
 ......END OF GEOMETRY SEARCH......
 CPU     0: STEP CPU TIME=     0.00 TOTAL CPU TIME=        3.9 (    0.1 MIN)
 TOTAL WALL CLOCK TIME=        3.9 SECONDS, CPU UTILIZATION IS  97.47%
               975296  WORDS OF DYNAMIC MEMORY USED
 EXECUTION OF GAMESS TERMINATED NORMALLY Sun Mar  6 22:03:39 2016
 DDI: 263640 bytes (0.3 MB / 0 MWords) used by master data server.

 ----------------------------------------
 CPU timing information for all processes
 ========================================
 0: 3.672 + 0.185 = 3.857
 1: 3.606 + 0.186 = 3.793
 ----------------------------------------
 ddikick.x: exited gracefully.
----- accounting info -----
Files used on the master node Clevo were:
-rw-r--r-- 1 sagar sagar  194989 Mar  6 22:03 /tmp/H2O_RHF_ccpVTZ.dat
-rw-r--r-- 1 sagar sagar     184 Mar  6 22:03 /tmp/H2O_RHF_ccpVTZ.F05
-rw-r--r-- 1 sagar sagar 6120544 Mar  6 22:03 /tmp/H2O_RHF_ccpVTZ.F08
-rw-r--r-- 1 sagar sagar 7200640 Mar  6 22:03 /tmp/H2O_RHF_ccpVTZ.F08.001
-rw-r--r-- 1 sagar sagar 1766880 Mar  6 22:03 /tmp/H2O_RHF_ccpVTZ.F10
Sun Mar  6 22:03:42 WET 2016
0.101u 0.043s 0:07.10 1.9%	0+0k 0+16io 0pf+0w
