----- GAMESS execution script 'rungms' -----
This job is running on host Clevo
under operating system Linux at Sun Mar 6 23:05:22 WET 2016
Available scratch disk space (Kbyte units) at beginning of the job is
Filesystem                                             1K-blocks     Used Available Use% Mounted on
/dev/disk/by-uuid/c2905ecd-da6a-4deb-abcc-9980c215dfc9  34319120 18791924  13760796  58% /
GAMESS temporary binary files will be written to /tmp
GAMESS supplementary output files will be written to .
Copying input file H2O_RHF_augccpVTZ_hessian.inp to your run's scratch directory...

 Distributed Data Interface kickoff program.
 Initiating 2 compute processes on 1 nodes to run the following command:
 /home/sagar/gamess/gamess.01.x H2O_RHF_augccpVTZ_hessian 

          ******************************************************
          *         GAMESS VERSION =  5 DEC 2014 (R1)          *
          *             FROM IOWA STATE UNIVERSITY             *
          * M.W.SCHMIDT, K.K.BALDRIDGE, J.A.BOATZ, S.T.ELBERT, *
          *   M.S.GORDON, J.H.JENSEN, S.KOSEKI, N.MATSUNAGA,   *
          *          K.A.NGUYEN, S.J.SU, T.L.WINDUS,           *
          *       TOGETHER WITH M.DUPUIS, J.A.MONTGOMERY       *
          *         J.COMPUT.CHEM.  14, 1347-1363(1993)        *
          **************** 64 BIT LINUX VERSION ****************

  SINCE 1993, STUDENTS AND POSTDOCS WORKING AT IOWA STATE UNIVERSITY
  AND ALSO IN THEIR VARIOUS JOBS AFTER LEAVING ISU HAVE MADE IMPORTANT
  CONTRIBUTIONS TO THE CODE:
     IVANA ADAMOVIC, CHRISTINE AIKENS, YURI ALEXEEV, POOJA ARORA,
     ANDREY ASADCHEV, ROB BELL, PRADIPTA BANDYOPADHYAY, JONATHAN BENTZ,
     BRETT BODE, KURT BRORSEN, CALEB CARLIN, GALINA CHABAN, WEI CHEN,
     CHEOL HO CHOI, PAUL DAY, ALBERT DEFUSCO, NUWAN DESILVA, TIM DUDLEY,
     DMITRI FEDOROV, GRAHAM FLETCHER, MARK FREITAG, KURT GLAESEMANN,
     DAN KEMP, GRANT MERRILL, NORIYUKI MINEZAWA, JONATHAN MULLIN,
     TAKESHI NAGATA, SEAN NEDD, HEATHER NETZLOFF, BOSILJKA NJEGIC, RYAN OLSON,
     MIKE PAK, SPENCER PRUITT, LUKE ROSKOP, JIM SHOEMAKER, LYUDMILA SLIPCHENKO,
     TONY SMITH, SAROM SOK, JIE SONG, TETSUYA TAKETSUGU, SIMON WEBB,
     PENG XU, SOOHAENG YOO, FEDERICO ZAHARIEV

  ADDITIONAL CODE HAS BEEN PROVIDED BY COLLABORATORS IN OTHER GROUPS:
     IOWA STATE UNIVERSITY:
          JOE IVANIC, AARON WEST, LAIMUTIS BYTAUTAS, KLAUS RUEDENBERG
     UNIVERSITY OF TOKYO: KIMIHIKO HIRAO, TAKAHITO NAKAJIMA,
          TAKAO TSUNEDA, MUNEAKI KAMIYA, SUSUMU YANAGISAWA,
          KIYOSHI YAGI, MAHITO CHIBA, SEIKEN TOKURA, NAOAKI KAWAKAMI
     UNIVERSITY OF AARHUS: FRANK JENSEN
     UNIVERSITY OF IOWA: VISVALDAS KAIRYS, HUI LI
     NATIONAL INST. OF STANDARDS AND TECHNOLOGY: WALT STEVENS, DAVID GARMER
     UNIVERSITY OF PISA: BENEDETTA MENNUCCI, JACOPO TOMASI
     UNIVERSITY OF MEMPHIS: HENRY KURTZ, PRAKASHAN KORAMBATH
     UNIVERSITY OF ALBERTA: TOBY ZENG, MARIUSZ KLOBUKOWSKI
     UNIVERSITY OF NEW ENGLAND: MARK SPACKMAN
     MIE UNIVERSITY: HIROAKI UMEDA
     NAT. INST. OF ADVANCED INDUSTRIAL SCIENCE AND TECHNOLOGY: KAZUO KITAURA
     MICHIGAN STATE UNIVERSITY:
          KAROL KOWALSKI, MARTA WLOCH, JEFFREY GOUR, JESSE LUTZ,
          WEI LI, PIOTR PIECUCH
     UNIVERSITY OF SILESIA: MONIKA MUSIAL, STANISLAW KUCHARSKI
     FACULTES UNIVERSITAIRES NOTRE-DAME DE LA PAIX:
          OLIVIER QUINET, BENOIT CHAMPAGNE
     UNIVERSITY OF CALIFORNIA - SANTA BARBARA: BERNARD KIRTMAN
     INSTITUTE FOR MOLECULAR SCIENCE:
          KAZUYA ISHIMURA, MICHIO KATOUDA, AND SHIGERU NAGASE
     UNIVERSITY OF NOTRE DAME: ANNA POMOGAEVA, DAN CHIPMAN
     KYUSHU UNIVERSITY:
          HARUYUKI NAKANO,
          FENG LONG GU, JACEK KORCHOWIEC, MARCIN MAKOWSKI, AND YURIKO AOKI,
          HIROTOSHI MORI AND EISAKU MIYOSHI
     PENNSYLVANIA STATE UNIVERSITY:
          TZVETELIN IORDANOV, CHET SWALINA, JONATHAN SKONE,
          SHARON HAMMES-SCHIFFER
     WASEDA UNIVERSITY:
          MASATO KOBAYASHI, TOMOKO AKAMA, TSUGUKI TOUMA,
          TAKESHI YOSHIKAWA, YASUHIRO IKABATA, HIROMI NAKAI
     NANJING UNIVERSITY: SHUHUA LI
     UNIVERSITY OF NEBRASKA:
          PEIFENG SU, DEJUN SI, NANDUN THELLAMUREGE, YALI WANG, HUI LI
     UNIVERSITY OF ZURICH: ROBERTO PEVERATI, KIM BALDRIDGE
     N. COPERNICUS UNIVERSITY AND JACKSON STATE UNIVERSITY:
          MARIA BARYSZ
     UNIVERSITY OF COPENHAGEN: CASPER STEINMANN
     TOKYO INSTITUTE OF TECHNOLOGY: HIROYA NAKATA
     NAGOYA UNIVERSITY: YOSHIO NISHIMOTO, STEPHAN IRLE


 PARALLEL VERSION RUNNING ON        2 PROCESSORS IN        1 NODES.

 EXECUTION OF GAMESS BEGUN Sun Mar  6 23:05:22 2016

            ECHO OF THE FIRST FEW INPUT CARDS -
 INPUT CARD> $CONTRL SCFTYP=RHF RUNTYP=HESSIAN ISPHER=1 $END                                
 INPUT CARD> $BASIS GBASIS=ACCT $END                                                        
 INPUT CARD> $DATA                                                                          
 INPUT CARD>H2O                                                                             
 INPUT CARD>C1                                                                              
 INPUT CARD> H 1 0.0000000000 -0.7530896478 -0.0214179096                                   
 INPUT CARD> H 1 0.0000000000 0.7530896478 -0.0214179096                                    
 INPUT CARD> O 8 0.0000000000 0.0000000000 0.5428358192                                     
 INPUT CARD> $END                                                                           
    1000000 WORDS OF MEMORY AVAILABLE

     BASIS OPTIONS
     -------------
     GBASIS=ACCT         IGAUSS=       0      POLAR=NONE    
     NDFUNC=       0     NFFUNC=       0     DIFFSP=       F
     NPFUNC=       0      DIFFS=       F     BASNAM=        


     RUN TITLE
     ---------
 H2O                                                                             

 THE POINT GROUP OF THE MOLECULE IS C1      
 THE ORDER OF THE PRINCIPAL AXIS IS     0

 ATOM      ATOMIC                      COORDINATES (BOHR)
           CHARGE         X                   Y                   Z
 H           1.0     0.0000000000       -1.4231330785       -0.0404739804
 H           1.0     0.0000000000        1.4231330785       -0.0404739804
 O           8.0     0.0000000000        0.0000000000        1.0258109546

          INTERNUCLEAR DISTANCES (ANGS.)
          ------------------------------

                1 H          2 H          3 O     

   1 H       0.0000000    1.5061793 *  0.9410241 *
   2 H       1.5061793 *  0.0000000    0.9410241 *
   3 O       0.9410241 *  0.9410241 *  0.0000000  

  * ... LESS THAN  3.000


     ATOMIC BASIS SET
     ----------------
 THE CONTRACTED PRIMITIVE FUNCTIONS HAVE BEEN UNNORMALIZED
 THE CONTRACTED BASIS FUNCTIONS ARE NOW NORMALIZED TO UNITY

  SHELL TYPE  PRIMITIVE        EXPONENT          CONTRACTION COEFFICIENT(S)

 H         

      1   S       1            33.8700000    0.025494863235
      1   S       2             5.0950000    0.190362765893
      1   S       3             1.1590000    0.852162022245

      2   S       4             0.3258000    1.000000000000

      3   S       5             0.1027000    1.000000000000

      4   P       6             1.4070000    1.000000000000

      5   P       7             0.3880000    1.000000000000

      6   D       8             1.0570000    1.000000000000

      7   S       9             0.0252600    1.000000000000

      8   P      10             0.1020000    1.000000000000

      9   D      11             0.2470000    1.000000000000

 H         

     10   S      12            33.8700000    0.025494863235
     10   S      13             5.0950000    0.190362765893
     10   S      14             1.1590000    0.852162022245

     11   S      15             0.3258000    1.000000000000

     12   S      16             0.1027000    1.000000000000

     13   P      17             1.4070000    1.000000000000

     14   P      18             0.3880000    1.000000000000

     15   D      19             1.0570000    1.000000000000

     16   S      20             0.0252600    1.000000000000

     17   P      21             0.1020000    1.000000000000

     18   D      22             0.2470000    1.000000000000

 O         

     19   S      23         15330.0000000    0.000520198307
     19   S      24          2299.0000000    0.004023344781
     19   S      25           522.4000000    0.020729083329
     19   S      26           147.3000000    0.081082327080
     19   S      27            47.5500000    0.236226352118
     19   S      28            16.7600000    0.443518209420
     19   S      29             6.2070000    0.358670588689
     19   S      30             0.6882000   -0.008349797237

     20   S      31         15330.0000000   -0.000197236012
     20   S      32          2299.0000000   -0.001535010700
     20   S      33           522.4000000   -0.007951183914
     20   S      34           147.3000000   -0.032113452892
     20   S      35            47.5500000   -0.100269643049
     20   S      36            16.7600000   -0.234047111838
     20   S      37             6.2070000   -0.301410927756
     20   S      38             0.6882000    1.034919649508

     21   S      39             1.7520000    1.000000000000

     22   S      40             0.2384000    1.000000000000

     23   P      41            34.4600000    0.041163489568
     23   P      42             7.7490000    0.257762835858
     23   P      43             2.2800000    0.802419274427

     24   P      44             0.7156000    1.000000000000

     25   P      45             0.2140000    1.000000000000

     26   D      46             2.3140000    1.000000000000

     27   D      47             0.6450000    1.000000000000

     28   F      48             1.4280000    1.000000000000

     29   S      49             0.0737600    1.000000000000

     30   P      50             0.0597400    1.000000000000

     31   D      51             0.2140000    1.000000000000

     32   F      52             0.5000000    1.000000000000

 TOTAL NUMBER OF BASIS SET SHELLS             =   32
 NUMBER OF CARTESIAN GAUSSIAN BASIS FUNCTIONS =  105
 NOTE: THIS RUN WILL RESTRICT THE MO VARIATION SPACE TO SPHERICAL HARMONICS.
 THE NUMBER OF ORBITALS KEPT IN THE VARIATIONAL SPACE WILL BE PRINTED LATER.
 NUMBER OF ELECTRONS                          =   10
 CHARGE OF MOLECULE                           =    0
 SPIN MULTIPLICITY                            =    1
 NUMBER OF OCCUPIED ORBITALS (ALPHA)          =    5
 NUMBER OF OCCUPIED ORBITALS (BETA )          =    5
 TOTAL NUMBER OF ATOMS                        =    3
 THE NUCLEAR REPULSION ENERGY IS        9.3488077076

     $CONTRL OPTIONS
     ---------------
 SCFTYP=RHF          RUNTYP=HESSIAN      EXETYP=RUN     
 MPLEVL=       0     CITYP =NONE         CCTYP =NONE         VBTYP =NONE    
 DFTTYP=NONE         TDDFT =NONE    
 MULT  =       1     ICHARG=       0     NZVAR =       0     COORD =UNIQUE  
 PP    =NONE         RELWFN=NONE         LOCAL =NONE         NUMGRD=       F
 ISPHER=       1     NOSYM =       0     MAXIT =      30     UNITS =ANGS    
 PLTORB=       F     MOLPLT=       F     AIMPAC=       F     FRIEND=        
 NPRINT=       7     IREST =       0     GEOM  =INPUT   
 NORMF =       0     NORMP =       0     ITOL  =      20     ICUT  =       9
 INTTYP=BEST         GRDTYP=BEST         QMTTOL= 1.0E-06

     $SYSTEM OPTIONS
     ---------------
  REPLICATED MEMORY=     1000000 WORDS (ON EVERY NODE).
 DISTRIBUTED MEMDDI=           0 MILLION WORDS IN AGGREGATE,
 MEMDDI DISTRIBUTED OVER   2 PROCESSORS IS           0 WORDS/PROCESSOR.
 TOTAL MEMORY REQUESTED ON EACH PROCESSOR=     1000000 WORDS.
 TIMLIM=      525600.00 MINUTES, OR     365.0 DAYS.
 PARALL= T  BALTYP=  DLB     KDIAG=    0  COREFL= F
 MXSEQ2=     300 MXSEQ3=     150  mem10=         0

          ----------------
          PROPERTIES INPUT
          ----------------

     MOMENTS            FIELD           POTENTIAL          DENSITY
 IEMOM =       1   IEFLD =       0   IEPOT =       0   IEDEN =       0
 WHERE =COMASS     WHERE =NUCLEI     WHERE =NUCLEI     WHERE =NUCLEI  
 OUTPUT=BOTH       OUTPUT=BOTH       OUTPUT=BOTH       OUTPUT=BOTH    
 IEMINT=       0   IEFINT=       0                     IEDINT=       0
                                                       MORB  =       0
          EXTRAPOLATION IN EFFECT
          SOSCF IN EFFECT
 ORBITAL PRINTING OPTION: NPREO=     1   105     2     1

     -------------------------------
     INTEGRAL TRANSFORMATION OPTIONS
     -------------------------------
     NWORD  =            0
     CUTOFF = 1.0E-09     MPTRAN =       0
     DIRTRF =       F     AOINTS =DUP     

          ----------------------
          INTEGRAL INPUT OPTIONS
          ----------------------
 NOPK  =       1 NORDER=       0 SCHWRZ=       F

     ------------------------------------------
     THE POINT GROUP IS C1 , NAXIS= 0, ORDER= 1
     ------------------------------------------

 -- VARIATIONAL SPACE WILL BE RESTRICTED TO PURE SPHERICAL HARMONICS ONLY --
 AFTER EXCLUDING CONTAMINANT COMBINATIONS FROM THE CARTESIAN GAUSSIAN BASIS
 SET, THE NUMBER OF SPHERICAL HARMONICS KEPT IN THE VARIATION SPACE IS   92

     DIMENSIONS OF THE SYMMETRY SUBSPACES ARE
 A   =   92

 ..... DONE SETTING UP THE RUN .....
 CPU     0: STEP CPU TIME=     0.02 TOTAL CPU TIME=        0.0 (    0.0 MIN)
 TOTAL WALL CLOCK TIME=        0.0 SECONDS, CPU UTILIZATION IS  66.67%

     ---------------------------------
     HESSIAN MATRIX CONTROL PARAMETERS
     ---------------------------------
     METHOD=SEMINUM    NVIB  =       2   VIBSIZ= 0.01000
     RDHESS=       F   PURIFY=       F   PRTIFC=       F
     VIBANL=       T   DECOMP=       F   PROJCT=       F
     SCLFAC= 1.00000   PRTSCN=       F   NPRT  =       0
     PULCOR=       F   NPUN  =       0   REDOVB=       T
     THERMOCHEMISTRY WILL BE PRINTED FOR    1 TEMPERATURES:
      298.15000
1   ATOM  0
                                        -------------------
   COORD  0                             NUCLEAR COORDINATES
                                        -------------------
     VIB  0

                       ATOM             X              Y              Z

                 1  H                0.000000      -1.423133      -0.040474
                 2  H                0.000000       1.423133      -0.040474
                 3  O                0.000000       0.000000       1.025811

          ********************
          1 ELECTRON INTEGRALS
          ********************
 ...... END OF ONE-ELECTRON INTEGRALS ......
 CPU     0: STEP CPU TIME=     0.00 TOTAL CPU TIME=        0.0 (    0.0 MIN)
 TOTAL WALL CLOCK TIME=        0.0 SECONDS, CPU UTILIZATION IS  66.67%

          -------------
          GUESS OPTIONS
          -------------
          GUESS =HUCKEL            NORB  =       0          NORDER=       0
          MIX   =       F          PRTMO =       F          PUNMO =       F
          TOLZ  = 1.0E-08          TOLE  = 1.0E-05
          SYMDEN=       F          PURIFY=       F

 INITIAL GUESS ORBITALS GENERATED BY HUCKEL   ROUTINE.
 HUCKEL GUESS REQUIRES     81459 WORDS.

 STATISTICS FOR GENERATION OF SYMMETRY ORBITAL -Q- MATRIX
 NUMBER OF CARTESIAN ATOMIC ORBITALS=        105
 NUMBER OF SPHERICAL CONTAMINANTS DROPPED=    13
 NUMBER OF LINEARLY DEPENDENT MOS DROPPED=     0
 TOTAL NUMBER OF MOS IN VARIATION SPACE=      92

 SYMMETRIES FOR INITIAL GUESS ORBITALS FOLLOW.   BOTH SET(S).
     5 ORBITALS ARE OCCUPIED (    1 CORE ORBITALS).
     2=A        3=A        4=A        5=A        6=A        7=A        8=A   
     9=A       10=A       11=A       12=A       13=A       14=A       15=A   
 ...... END OF INITIAL ORBITAL SELECTION ......
 CPU     0: STEP CPU TIME=     0.01 TOTAL CPU TIME=        0.0 (    0.0 MIN)
 TOTAL WALL CLOCK TIME=        0.0 SECONDS, CPU UTILIZATION IS  75.00%

                    ----------------------
                    AO INTEGRAL TECHNOLOGY
                    ----------------------
     S,P,L SHELL ROTATED AXIS INTEGRALS, REPROGRAMMED BY
        KAZUYA ISHIMURA (IMS) AND JOSE SIERRA (SYNSTAR).
     S,P,D,L SHELL ROTATED AXIS INTEGRALS PROGRAMMED BY
        KAZUYA ISHIMURA (INSTITUTE FOR MOLECULAR SCIENCE).
     S,P,D,F,G SHELL TO TOTAL QUARTET ANGULAR MOMENTUM SUM 5,
        ERIC PROGRAM BY GRAHAM FLETCHER (ELORET AND NASA ADVANCED
        SUPERCOMPUTING DIVISION, AMES RESEARCH CENTER).
     S,P,D,F,G,L SHELL GENERAL RYS QUADRATURE PROGRAMMED BY
        MICHEL DUPUIS (PACIFIC NORTHWEST NATIONAL LABORATORY).

          --------------------
          2 ELECTRON INTEGRALS
          --------------------

 THE -PK- OPTION IS OFF, THE INTEGRALS ARE NOT IN SUPERMATRIX FORM.
 STORING   15000 INTEGRALS/RECORD ON DISK, USING 12 BYTES/INTEGRAL.
 TWO ELECTRON INTEGRAL EVALUATION REQUIRES   99628 WORDS OF MEMORY.
 II,JST,KST,LST =  1  1  1  1 NREC =         1 INTLOC =    1
 II,JST,KST,LST =  2  1  1  1 NREC =         1 INTLOC =    1
 II,JST,KST,LST =  3  1  1  1 NREC =         1 INTLOC =    5
 II,JST,KST,LST =  4  1  1  1 NREC =         1 INTLOC =    5
 II,JST,KST,LST =  5  1  1  1 NREC =         1 INTLOC =    5
 II,JST,KST,LST =  6  1  1  1 NREC =         1 INTLOC =   65
 II,JST,KST,LST =  7  1  1  1 NREC =         1 INTLOC =  788
 II,JST,KST,LST =  8  1  1  1 NREC =         1 INTLOC =  788
 II,JST,KST,LST =  9  1  1  1 NREC =         1 INTLOC = 1463
 II,JST,KST,LST = 10  1  1  1 NREC =         1 INTLOC = 4703
 II,JST,KST,LST = 11  1  1  1 NREC =         1 INTLOC = 5383
 II,JST,KST,LST = 12  1  1  1 NREC =         1 INTLOC = 7571
 II,JST,KST,LST = 13  1  1  1 NREC =         1 INTLOC = 8834
 II,JST,KST,LST = 14  1  1  1 NREC =         1 INTLOC =14567
 II,JST,KST,LST = 15  1  1  1 NREC =         2 INTLOC = 7089
 II,JST,KST,LST = 16  1  1  1 NREC =         3 INTLOC =11234
 II,JST,KST,LST = 17  1  1  1 NREC =         4 INTLOC = 4580
 II,JST,KST,LST = 18  1  1  1 NREC =         5 INTLOC = 2081
 II,JST,KST,LST = 19  1  1  1 NREC =         8 INTLOC = 4313
 II,JST,KST,LST = 20  1  1  1 NREC =         9 INTLOC =  209
 II,JST,KST,LST = 21  1  1  1 NREC =         9 INTLOC =12471
 II,JST,KST,LST = 22  1  1  1 NREC =        11 INTLOC = 3775
 II,JST,KST,LST = 23  1  1  1 NREC =        13 INTLOC = 1109
 II,JST,KST,LST = 24  1  1  1 NREC =        16 INTLOC =10491
 II,JST,KST,LST = 25  1  1  1 NREC =        22 INTLOC = 1790
 II,JST,KST,LST = 26  1  1  1 NREC =        28 INTLOC =13940
 II,JST,KST,LST = 27  1  1  1 NREC =        42 INTLOC = 5350
 II,JST,KST,LST = 28  1  1  1 NREC =        62 INTLOC =14188
 II,JST,KST,LST = 29  1  1  1 NREC =       103 INTLOC =11831
 II,JST,KST,LST = 30  1  1  1 NREC =       112 INTLOC =11471
 II,JST,KST,LST = 31  1  1  1 NREC =       128 INTLOC =11354
 II,JST,KST,LST = 32  1  1  1 NREC =       161 INTLOC =10661
 TOTAL NUMBER OF NONZERO TWO-ELECTRON INTEGRALS =             7265290
        485 INTEGRAL RECORDS WERE STORED ON DISK FILE  8.
  ...... END OF TWO-ELECTRON INTEGRALS .....
 CPU     0: STEP CPU TIME=     0.44 TOTAL CPU TIME=        0.5 (    0.0 MIN)
 TOTAL WALL CLOCK TIME=        0.5 SECONDS, CPU UTILIZATION IS  97.92%

          --------------------------
                 RHF SCF CALCULATION
          --------------------------

     NUCLEAR ENERGY =         9.3488077076
     MAXIT =   30     NPUNCH=    2
     EXTRAP=T  DAMP=F  SHIFT=F  RSTRCT=F  DIIS=F  DEM=F  SOSCF=T
     DENSITY MATRIX CONV=  1.00E-05
     SOSCF WILL OPTIMIZE     435 ORBITAL ROTATIONS, SOGTOL=   0.250
     MEMORY REQUIRED FOR RHF ITERS=    110385 WORDS.

 ITER EX DEM     TOTAL ENERGY        E CHANGE  DENSITY CHANGE     ORB. GRAD
   1  0  0      -75.7667565875   -75.7667565875   0.733576578   0.000000000
          ---------------START SECOND ORDER SCF---------------
   2  1  0      -76.0442308918    -0.2774743043   0.077989368   0.035334247
   3  2  0      -76.0593988911    -0.0151679993   0.024054205   0.012742599
   4  3  0      -76.0610959099    -0.0016970189   0.004728160   0.003571600
   5  4  0      -76.0611859553    -0.0000900454   0.001009958   0.001483139
   6  5  0      -76.0612022135    -0.0000162582   0.000288017   0.000324550
   7  6  0      -76.0612031012    -0.0000008877   0.000058686   0.000028807
   8  7  0      -76.0612031185    -0.0000000173   0.000010666   0.000005545
   9  8  0      -76.0612031194    -0.0000000009   0.000004734   0.000001768
  10  9  0      -76.0612031195    -0.0000000001   0.000000800   0.000000431

          -----------------
          DENSITY CONVERGED
          -----------------
     TIME TO FORM FOCK OPERATORS=       0.6 SECONDS (       0.1 SEC/ITER)
     TIME TO SOLVE SCF EQUATIONS=       0.0 SECONDS (       0.0 SEC/ITER)

 FINAL RHF ENERGY IS      -76.0612031195 AFTER  10 ITERATIONS

          ------------
          EIGENVECTORS
          ------------

                      1          2          3          4          5
                  -20.5635    -1.3608    -0.7304    -0.5845    -0.5112
                     A          A          A          A          A   
    1  H  1  S    0.000533   0.091530  -0.143304  -0.084181   0.000000
    2  H  1  S    0.000593   0.076616  -0.232355  -0.178400   0.000000
    3  H  1  S   -0.000418  -0.016618  -0.036981  -0.060903   0.000000
    4  H  1  X   -0.000000  -0.000000  -0.000000   0.000000   0.011102
    5  H  1  Y    0.000103   0.011295  -0.010830  -0.010019   0.000000
    6  H  1  Z    0.000056   0.007655  -0.013353   0.001842   0.000000
    7  H  1  X   -0.000000  -0.000000  -0.000000   0.000000   0.031374
    8  H  1  Y    0.000531   0.007609  -0.021788  -0.032511   0.000000
    9  H  1  Z    0.000463   0.005152  -0.028951   0.000446   0.000000
   10  H  1 XX    0.000103  -0.001248   0.004135   0.001814   0.000000
   11  H  1 YY   -0.000063   0.001208  -0.002286  -0.004062   0.000000
   12  H  1 ZZ   -0.000040   0.000040  -0.001849   0.002248   0.000000
   13  H  1 XY   -0.000000  -0.000000  -0.000000   0.000000   0.003951
   14  H  1 XZ   -0.000000  -0.000000  -0.000000   0.000000   0.002940
   15  H  1 YZ   -0.000189   0.002269  -0.006866  -0.001788   0.000000
   16  H  1  S    0.000012  -0.001480   0.004365  -0.001728   0.000000
   17  H  1  X   -0.000000  -0.000000  -0.000000   0.000000   0.019209
   18  H  1  Y    0.000076  -0.005833   0.007445  -0.003614   0.000000
   19  H  1  Z    0.000039  -0.004714  -0.000280   0.009696   0.000000
   20  H  1 XX   -0.000216   0.000737  -0.000256   0.000694   0.000000
   21  H  1 YY    0.000194  -0.000713   0.002166  -0.002620   0.000000
   22  H  1 ZZ    0.000023  -0.000024  -0.001910   0.001926   0.000000
   23  H  1 XY   -0.000000  -0.000000  -0.000000   0.000000   0.006462
   24  H  1 XZ   -0.000000  -0.000000  -0.000000   0.000000   0.004449
   25  H  1 YZ    0.000379  -0.001332  -0.002270   0.002974   0.000000
   26  H  2  S    0.000533   0.091530   0.143304  -0.084181   0.000000
   27  H  2  S    0.000593   0.076616   0.232355  -0.178400   0.000000
   28  H  2  S   -0.000418  -0.016618   0.036981  -0.060903   0.000000
   29  H  2  X   -0.000000  -0.000000  -0.000000   0.000000   0.011102
   30  H  2  Y   -0.000103  -0.011295  -0.010830   0.010019   0.000000
   31  H  2  Z    0.000056   0.007655   0.013353   0.001842   0.000000
   32  H  2  X   -0.000000  -0.000000  -0.000000   0.000000   0.031374
   33  H  2  Y   -0.000531  -0.007609  -0.021788   0.032511   0.000000
   34  H  2  Z    0.000463   0.005152   0.028951   0.000446   0.000000
   35  H  2 XX    0.000103  -0.001248  -0.004135   0.001814   0.000000
   36  H  2 YY   -0.000063   0.001208   0.002286  -0.004062   0.000000
   37  H  2 ZZ   -0.000040   0.000040   0.001849   0.002248   0.000000
   38  H  2 XY   -0.000000  -0.000000  -0.000000   0.000000  -0.003951
   39  H  2 XZ   -0.000000  -0.000000  -0.000000   0.000000   0.002940
   40  H  2 YZ    0.000189  -0.002269  -0.006866   0.001788   0.000000
   41  H  2  S    0.000012  -0.001480  -0.004365  -0.001728   0.000000
   42  H  2  X   -0.000000  -0.000000  -0.000000   0.000000   0.019209
   43  H  2  Y   -0.000076   0.005833   0.007445   0.003614   0.000000
   44  H  2  Z    0.000039  -0.004714   0.000280   0.009696   0.000000
   45  H  2 XX   -0.000216   0.000737   0.000256   0.000694   0.000000
   46  H  2 YY    0.000194  -0.000713  -0.002166  -0.002620   0.000000
   47  H  2 ZZ    0.000023  -0.000024   0.001910   0.001926   0.000000
   48  H  2 XY   -0.000000  -0.000000  -0.000000   0.000000  -0.006462
   49  H  2 XZ   -0.000000  -0.000000  -0.000000   0.000000   0.004449
   50  H  2 YZ   -0.000379   0.001332  -0.002270  -0.002974   0.000000
   51  O  3  S    0.975446  -0.008795  -0.000000   0.005051   0.000000
   52  O  3  S   -0.001292   0.503976  -0.000000   0.181291   0.000000
   53  O  3  S    0.043663   0.132314  -0.000000   0.051617   0.000000
   54  O  3  S    0.001535   0.288766  -0.000000   0.333250   0.000000
   55  O  3  X   -0.000000  -0.000000  -0.000000   0.000000   0.353639
   56  O  3  Y   -0.000000  -0.000000   0.285625   0.000000   0.000000
   57  O  3  Z   -0.001849  -0.046041  -0.000000   0.314576   0.000000
   58  O  3  X   -0.000000  -0.000000  -0.000000   0.000000   0.449396
   59  O  3  Y   -0.000000  -0.000000   0.335634   0.000000   0.000000
   60  O  3  Z    0.001384  -0.064064  -0.000000   0.385142   0.000000
   61  O  3  X   -0.000000  -0.000000  -0.000000   0.000000   0.322551
   62  O  3  Y   -0.000000   0.000000   0.141693   0.000000   0.000000
   63  O  3  Z   -0.000450  -0.015505  -0.000000   0.213021   0.000000
   64  O  3 XX   -0.000091  -0.003792  -0.000000   0.006060   0.000000
   65  O  3 YY    0.000083   0.002987  -0.000000  -0.000198   0.000000
   66  O  3 ZZ    0.000008   0.000805  -0.000000  -0.005862   0.000000
   67  O  3 XY   -0.000000  -0.000000  -0.000000   0.000000   0.000000
   68  O  3 XZ   -0.000000  -0.000000  -0.000000   0.000000  -0.005876
   69  O  3 YZ   -0.000000  -0.000000  -0.012712   0.000000   0.000000
   70  O  3 XX    0.000445  -0.008721  -0.000000   0.008684   0.000000
   71  O  3 YY   -0.000386   0.005482  -0.000000   0.007045   0.000000
   72  O  3 ZZ   -0.000059   0.003239  -0.000000  -0.015728   0.000000
   73  O  3 XY   -0.000000  -0.000000  -0.000000   0.000000   0.000000
   74  O  3 XZ   -0.000000  -0.000000  -0.000000   0.000000  -0.013927
   75  O  3 YZ   -0.000000  -0.000000  -0.021298   0.000000   0.000000
   76  O  3 XXX  -0.000000  -0.000000  -0.000000   0.000000  -0.003662
   77  O  3 YYY  -0.000000  -0.000000   0.002391   0.000000   0.000000
   78  O  3 ZZZ   0.000039   0.000992  -0.000000   0.000497   0.000000
   79  O  3 XXY  -0.000000  -0.000000  -0.002744   0.000000   0.000000
   80  O  3 XXZ   0.000009   0.001679  -0.000000  -0.002784   0.000000
   81  O  3 YYX  -0.000000  -0.000000  -0.000000   0.000000   0.003547
   82  O  3 YYZ  -0.000062  -0.003009  -0.000000   0.002116   0.000000
   83  O  3 ZZX  -0.000000  -0.000000  -0.000000   0.000000   0.001366
   84  O  3 ZZY  -0.000000  -0.000000  -0.000464   0.000000   0.000000
   85  O  3 XYZ  -0.000000  -0.000000  -0.000000   0.000000   0.000000
   86  O  3  S    0.000549   0.036276  -0.000000   0.081989   0.000000
   87  O  3  X   -0.000000  -0.000000  -0.000000   0.000000   0.032526
   88  O  3  Y   -0.000000  -0.000000   0.006926   0.000000   0.000000
   89  O  3  Z   -0.000186  -0.002740  -0.000000   0.013685   0.000000
   90  O  3 XX   -0.000178   0.003042  -0.000000  -0.007087   0.000000
   91  O  3 YY    0.000110  -0.003882  -0.000000   0.011089   0.000000
   92  O  3 ZZ    0.000069   0.000840  -0.000000  -0.004001   0.000000
   93  O  3 XY   -0.000000  -0.000000  -0.000000   0.000000   0.000000
   94  O  3 XZ   -0.000000  -0.000000  -0.000000   0.000000  -0.004837
   95  O  3 YZ   -0.000000  -0.000000   0.003590   0.000000   0.000000
   96  O  3 XXX  -0.000000  -0.000000  -0.000000   0.000000  -0.001189
   97  O  3 YYY  -0.000000  -0.000000   0.000023   0.000000   0.000000
   98  O  3 ZZZ  -0.000101  -0.000768  -0.000000   0.001408   0.000000
   99  O  3 XXY  -0.000000  -0.000000  -0.002158   0.000000   0.000000
  100  O  3 XXZ  -0.000088   0.000483  -0.000000  -0.000434   0.000000
  101  O  3 YYX  -0.000000  -0.000000  -0.000000   0.000000   0.000798
  102  O  3 YYZ   0.000224   0.000548  -0.000000  -0.001455   0.000000
  103  O  3 ZZX  -0.000000  -0.000000  -0.000000   0.000000   0.000797
  104  O  3 ZZY  -0.000000  -0.000000   0.002127   0.000000   0.000000
  105  O  3 XYZ  -0.000000  -0.000000  -0.000000   0.000000   0.000000

                      6          7          8          9         10
                    0.0298     0.0476     0.1362     0.1574     0.1753
                     A          A          A          A          A   
    1  H  1  S   -0.001466  -0.006672  -0.000611  -0.000000   0.026991
    2  H  1  S   -0.252948   0.275178  -0.257123  -0.000000  -0.530066
    3  H  1  S   -0.990267   1.410957  -3.234516  -0.000000  -1.429161
    4  H  1  X   -0.000000  -0.000000  -0.000000   0.000683  -0.000000
    5  H  1  Y    0.001864   0.000872  -0.000369  -0.000000  -0.012732
    6  H  1  Z    0.000216  -0.001058  -0.000213  -0.000000  -0.007676
    7  H  1  X   -0.000000  -0.000000  -0.000000  -0.045928  -0.000000
    8  H  1  Y   -0.082667   0.067341  -0.215739  -0.000000  -0.201283
    9  H  1  Z   -0.060975   0.072411  -0.124607  -0.000000  -0.192280
   10  H  1 XX    0.002530  -0.003304   0.008300  -0.000000   0.004915
   11  H  1 YY   -0.001650   0.003295  -0.007099  -0.000000  -0.002762
   12  H  1 ZZ   -0.000880   0.000009  -0.001202  -0.000000  -0.002153
   13  H  1 XY   -0.000000  -0.000000  -0.000000   0.002049  -0.000000
   14  H  1 XZ   -0.000000  -0.000000  -0.000000   0.002299  -0.000000
   15  H  1 YZ   -0.004798   0.004605  -0.009915  -0.000000  -0.014274
   16  H  1  S   -0.864985   3.459425  -0.717491  -0.000000  -0.724615
   17  H  1  X   -0.000000  -0.000000  -0.000000  -0.600852  -0.000000
   18  H  1  Y   -0.226294   0.271550  -0.759101  -0.000000  -0.830719
   19  H  1  Z   -0.200620   0.324277  -0.397177  -0.000000  -0.938233
   20  H  1 XX    0.018971  -0.008041   0.039713  -0.000000   0.069496
   21  H  1 YY   -0.016497  -0.007618  -0.060818  -0.000000  -0.046806
   22  H  1 ZZ   -0.002474   0.015659   0.021105  -0.000000  -0.022690
   23  H  1 XY   -0.000000  -0.000000  -0.000000  -0.074705  -0.000000
   24  H  1 XZ   -0.000000  -0.000000  -0.000000  -0.043182  -0.000000
   25  H  1 YZ   -0.027339   0.032387  -0.076559  -0.000000  -0.114809
   26  H  2  S   -0.001466   0.006672  -0.000611  -0.000000   0.026991
   27  H  2  S   -0.252948  -0.275178  -0.257123  -0.000000  -0.530066
   28  H  2  S   -0.990267  -1.410957  -3.234516  -0.000000  -1.429161
   29  H  2  X   -0.000000  -0.000000  -0.000000   0.000683  -0.000000
   30  H  2  Y   -0.001864   0.000872   0.000369  -0.000000   0.012732
   31  H  2  Z    0.000216   0.001058  -0.000213  -0.000000  -0.007676
   32  H  2  X   -0.000000  -0.000000  -0.000000  -0.045928  -0.000000
   33  H  2  Y    0.082667   0.067341   0.215739  -0.000000   0.201283
   34  H  2  Z   -0.060975  -0.072411  -0.124607  -0.000000  -0.192280
   35  H  2 XX    0.002530   0.003304   0.008300  -0.000000   0.004915
   36  H  2 YY   -0.001650  -0.003295  -0.007099  -0.000000  -0.002762
   37  H  2 ZZ   -0.000880  -0.000009  -0.001202  -0.000000  -0.002153
   38  H  2 XY   -0.000000  -0.000000  -0.000000  -0.002049  -0.000000
   39  H  2 XZ   -0.000000  -0.000000  -0.000000   0.002299  -0.000000
   40  H  2 YZ    0.004798   0.004605   0.009915  -0.000000   0.014274
   41  H  2  S   -0.864985  -3.459425  -0.717491  -0.000000  -0.724615
   42  H  2  X   -0.000000  -0.000000  -0.000000  -0.600852  -0.000000
   43  H  2  Y    0.226294   0.271550   0.759101  -0.000000   0.830719
   44  H  2  Z   -0.200620  -0.324277  -0.397177  -0.000000  -0.938233
   45  H  2 XX    0.018971   0.008041   0.039713  -0.000000   0.069496
   46  H  2 YY   -0.016497   0.007618  -0.060818  -0.000000  -0.046806
   47  H  2 ZZ   -0.002474  -0.015659   0.021105  -0.000000  -0.022690
   48  H  2 XY   -0.000000  -0.000000  -0.000000   0.074705  -0.000000
   49  H  2 XZ   -0.000000  -0.000000  -0.000000  -0.043182  -0.000000
   50  H  2 YZ    0.027339   0.032387   0.076559  -0.000000   0.114809
   51  O  3  S    0.000668  -0.000000  -0.005772  -0.000000  -0.001468
   52  O  3  S    0.060238  -0.000000  -0.052246  -0.000000  -0.135815
   53  O  3  S    0.013142  -0.000000  -0.015828  -0.000000  -0.053797
   54  O  3  S    0.841479  -0.000000   1.575540  -0.000000   1.799497
   55  O  3  X   -0.000000  -0.000000  -0.000000  -0.086163  -0.000000
   56  O  3  Y   -0.000000   0.027872  -0.000000  -0.000000  -0.000000
   57  O  3  Z   -0.026520  -0.000000   0.087344  -0.000000   0.015929
   58  O  3  X   -0.000000  -0.000000  -0.000000  -0.080461  -0.000000
   59  O  3  Y   -0.000000   0.075937  -0.000000  -0.000000  -0.000000
   60  O  3  Z   -0.070443  -0.000000   0.032449  -0.000000  -0.068021
   61  O  3  X   -0.000000  -0.000000  -0.000000   0.083877  -0.000000
   62  O  3  Y    0.000000   0.563254   0.000000  -0.000000  -0.000000
   63  O  3  Z   -0.341548  -0.000000  -0.421464  -0.000000  -0.554111
   64  O  3 XX    0.000758  -0.000000  -0.000778  -0.000000   0.003121
   65  O  3 YY   -0.000754  -0.000000   0.000925  -0.000000  -0.001076
   66  O  3 ZZ   -0.000004  -0.000000  -0.000147  -0.000000  -0.002045
   67  O  3 XY   -0.000000  -0.000000  -0.000000  -0.000000  -0.000000
   68  O  3 XZ   -0.000000  -0.000000  -0.000000  -0.001788  -0.000000
   69  O  3 YZ   -0.000000  -0.000187  -0.000000  -0.000000  -0.000000
   70  O  3 XX   -0.023267  -0.000000  -0.009946  -0.000000  -0.071221
   71  O  3 YY    0.017827  -0.000000   0.019118  -0.000000   0.057961
   72  O  3 ZZ    0.005439  -0.000000  -0.009172  -0.000000   0.013260
   73  O  3 XY   -0.000000  -0.000000  -0.000000  -0.000000  -0.000000
   74  O  3 XZ   -0.000000  -0.000000  -0.000000   0.027682  -0.000000
   75  O  3 YZ   -0.000000  -0.029735  -0.000000  -0.000000  -0.000000
   76  O  3 XXX  -0.000000  -0.000000  -0.000000   0.004738  -0.000000
   77  O  3 YYY  -0.000000  -0.000366  -0.000000  -0.000000  -0.000000
   78  O  3 ZZZ   0.000732  -0.000000   0.001921  -0.000000   0.001461
   79  O  3 XXY  -0.000000  -0.000524  -0.000000  -0.000000  -0.000000
   80  O  3 XXZ   0.000687  -0.000000   0.000510  -0.000000   0.002577
   81  O  3 YYX  -0.000000  -0.000000  -0.000000  -0.003798  -0.000000
   82  O  3 YYZ  -0.001668  -0.000000  -0.003088  -0.000000  -0.004536
   83  O  3 ZZX  -0.000000  -0.000000  -0.000000  -0.002559  -0.000000
   84  O  3 ZZY  -0.000000   0.001015  -0.000000  -0.000000  -0.000000
   85  O  3 XYZ  -0.000000  -0.000000  -0.000000  -0.000000  -0.000000
   86  O  3  S    2.461076  -0.000000   6.699195  -0.000000   4.427135
   87  O  3  X   -0.000000  -0.000000  -0.000000   1.862893  -0.000000
   88  O  3  Y    0.000000   1.163293   0.000000  -0.000000  -0.000000
   89  O  3  Z   -0.213016  -0.000000  -2.078370  -0.000000   0.879213
   90  O  3 XX   -0.047049  -0.000000  -0.095761  -0.000000  -0.023162
   91  O  3 YY    0.052351  -0.000000  -0.001742  -0.000000   0.155167
   92  O  3 ZZ   -0.005302  -0.000000   0.097503  -0.000000  -0.132005
   93  O  3 XY   -0.000000  -0.000000  -0.000000  -0.000000  -0.000000
   94  O  3 XZ   -0.000000  -0.000000  -0.000000  -0.212140  -0.000000
   95  O  3 YZ   -0.000000  -0.128706  -0.000000  -0.000000   0.000000
   96  O  3 XXX  -0.000000  -0.000000  -0.000000  -0.014652  -0.000000
   97  O  3 YYY  -0.000000   0.006129  -0.000000  -0.000000  -0.000000
   98  O  3 ZZZ   0.004532  -0.000000  -0.006613  -0.000000   0.019693
   99  O  3 XXY  -0.000000  -0.010867  -0.000000  -0.000000  -0.000000
  100  O  3 XXZ   0.005992  -0.000000  -0.000338  -0.000000   0.006532
  101  O  3 YYX  -0.000000  -0.000000  -0.000000   0.010111  -0.000000
  102  O  3 YYZ  -0.012072  -0.000000   0.009210  -0.000000  -0.032953
  103  O  3 ZZX  -0.000000  -0.000000  -0.000000   0.009547  -0.000000
  104  O  3 ZZY  -0.000000   0.002644  -0.000000  -0.000000  -0.000000
  105  O  3 XYZ  -0.000000  -0.000000  -0.000000  -0.000000  -0.000000

                     11         12         13         14         15
                    0.1825     0.2296     0.2456     0.2648     0.3033
                     A          A          A          A          A   
    1  H  1  S   -0.002150   0.037254  -0.032690   0.000000  -0.000000
    2  H  1  S   -0.982648   0.742275  -0.230864   0.000000  -0.000000
    3  H  1  S   -4.990530  -0.114269  -1.562006   0.000000  -0.000000
    4  H  1  X   -0.000000  -0.000000   0.000000  -0.002167   0.008169
    5  H  1  Y   -0.012435   0.000483  -0.005502   0.000000  -0.000000
    6  H  1  Z   -0.005445  -0.008654   0.005869   0.000000  -0.000000
    7  H  1  X   -0.000000  -0.000000   0.000000   0.304796  -0.366829
    8  H  1  Y   -0.249449  -0.003965   0.157601   0.000000  -0.000000
    9  H  1  Z   -0.259496  -0.044180  -0.297844   0.000000  -0.000000
   10  H  1 XX    0.012521  -0.000713  -0.003463   0.000000  -0.000000
   11  H  1 YY   -0.010817   0.002468   0.007505   0.000000  -0.000000
   12  H  1 ZZ   -0.001704  -0.001756  -0.004042   0.000000  -0.000000
   13  H  1 XY   -0.000000  -0.000000   0.000000   0.006306  -0.008754
   14  H  1 XZ   -0.000000  -0.000000   0.000000   0.003498  -0.007034
   15  H  1 YZ   -0.017231  -0.003731  -0.011735   0.000000  -0.000000
   16  H  1  S   -3.400497   0.031918  -0.100948   0.000000  -0.000000
   17  H  1  X   -0.000000  -0.000000   0.000000   1.816885  -1.956375
   18  H  1  Y   -1.080162  -1.337284   0.890110   0.000000  -0.000000
   19  H  1  Z   -1.183032  -0.869188  -1.056714   0.000000  -0.000000
   20  H  1 XX    0.007053   0.172947   0.005918   0.000000  -0.000000
   21  H  1 YY    0.041478  -0.114104   0.242516   0.000000  -0.000000
   22  H  1 ZZ   -0.048531  -0.058843  -0.248434   0.000000  -0.000000
   23  H  1 XY   -0.000000  -0.000000   0.000000   0.253908  -0.324037
   24  H  1 XZ   -0.000000  -0.000000   0.000000   0.223882  -0.192118
   25  H  1 YZ   -0.091394  -0.165123  -0.028226   0.000000  -0.000000
   26  H  2  S    0.002150  -0.037254  -0.032690   0.000000  -0.000000
   27  H  2  S    0.982648  -0.742275  -0.230864   0.000000  -0.000000
   28  H  2  S    4.990530   0.114269  -1.562006   0.000000  -0.000000
   29  H  2  X   -0.000000  -0.000000   0.000000   0.002167   0.008169
   30  H  2  Y   -0.012435   0.000483   0.005502   0.000000  -0.000000
   31  H  2  Z    0.005445   0.008654   0.005869   0.000000  -0.000000
   32  H  2  X   -0.000000  -0.000000   0.000000  -0.304796  -0.366829
   33  H  2  Y   -0.249449  -0.003965  -0.157601   0.000000  -0.000000
   34  H  2  Z    0.259496   0.044180  -0.297844   0.000000  -0.000000
   35  H  2 XX   -0.012521   0.000713  -0.003463   0.000000  -0.000000
   36  H  2 YY    0.010817  -0.002468   0.007505   0.000000  -0.000000
   37  H  2 ZZ    0.001704   0.001756  -0.004042   0.000000  -0.000000
   38  H  2 XY   -0.000000  -0.000000   0.000000   0.006306   0.008754
   39  H  2 XZ   -0.000000  -0.000000   0.000000  -0.003498  -0.007034
   40  H  2 YZ   -0.017231  -0.003731   0.011735   0.000000  -0.000000
   41  H  2  S    3.400497  -0.031918  -0.100948   0.000000  -0.000000
   42  H  2  X   -0.000000  -0.000000   0.000000  -1.816885  -1.956375
   43  H  2  Y   -1.080162  -1.337284  -0.890110   0.000000  -0.000000
   44  H  2  Z    1.183032   0.869188  -1.056714   0.000000  -0.000000
   45  H  2 XX   -0.007053  -0.172947   0.005918   0.000000  -0.000000
   46  H  2 YY   -0.041478   0.114104   0.242516   0.000000  -0.000000
   47  H  2 ZZ    0.048531   0.058843  -0.248434   0.000000  -0.000000
   48  H  2 XY   -0.000000  -0.000000   0.000000   0.253908   0.324037
   49  H  2 XZ   -0.000000  -0.000000   0.000000  -0.223882  -0.192118
   50  H  2 YZ   -0.091394  -0.165123   0.028226   0.000000  -0.000000
   51  O  3  S   -0.000000  -0.000000  -0.012224   0.000000  -0.000000
   52  O  3  S    0.000000  -0.000000  -0.017443   0.000000  -0.000000
   53  O  3  S   -0.000000  -0.000000  -0.006089   0.000000  -0.000000
   54  O  3  S   -0.000000  -0.000000   0.276193   0.000000  -0.000000
   55  O  3  X   -0.000000  -0.000000   0.000000   0.000000   0.086444
   56  O  3  Y    0.090665   0.065089   0.000000   0.000000  -0.000000
   57  O  3  Z   -0.000000  -0.000000  -0.001382   0.000000  -0.000000
   58  O  3  X   -0.000000  -0.000000   0.000000   0.000000   0.062973
   59  O  3  Y   -0.014486   0.021882   0.000000   0.000000  -0.000000
   60  O  3  Z    0.000000  -0.000000  -0.004709   0.000000  -0.000000
   61  O  3  X   -0.000000  -0.000000   0.000000   0.000000   2.049753
   62  O  3  Y   -1.719762   0.900435   0.000000   0.000000  -0.000000
   63  O  3  Z    0.000000  -0.000000   0.725070   0.000000  -0.000000
   64  O  3 XX   -0.000000  -0.000000   0.000624   0.000000  -0.000000
   65  O  3 YY   -0.000000  -0.000000  -0.007226   0.000000  -0.000000
   66  O  3 ZZ   -0.000000  -0.000000   0.006602   0.000000  -0.000000
   67  O  3 XY   -0.000000  -0.000000   0.000000  -0.005924  -0.000000
   68  O  3 XZ   -0.000000  -0.000000   0.000000   0.000000   0.006871
   69  O  3 YZ   -0.003459   0.004565   0.000000   0.000000  -0.000000
   70  O  3 XX   -0.000000  -0.000000   0.002054   0.000000  -0.000000
   71  O  3 YY   -0.000000  -0.000000   0.036768   0.000000  -0.000000
   72  O  3 ZZ   -0.000000  -0.000000  -0.038821   0.000000  -0.000000
   73  O  3 XY   -0.000000  -0.000000   0.000000   0.021249  -0.000000
   74  O  3 XZ   -0.000000  -0.000000   0.000000   0.000000  -0.040621
   75  O  3 YZ    0.087948   0.012859   0.000000   0.000000  -0.000000
   76  O  3 XXX  -0.000000  -0.000000   0.000000   0.000000   0.009632
   77  O  3 YYY   0.002551   0.001398   0.000000   0.000000  -0.000000
   78  O  3 ZZZ  -0.000000  -0.000000  -0.004743   0.000000  -0.000000
   79  O  3 XXY  -0.000215   0.006995   0.000000   0.000000  -0.000000
   80  O  3 XXZ  -0.000000  -0.000000   0.001984   0.000000  -0.000000
   81  O  3 YYX  -0.000000  -0.000000   0.000000   0.000000  -0.007057
   82  O  3 YYZ  -0.000000  -0.000000   0.004380   0.000000  -0.000000
   83  O  3 ZZX  -0.000000  -0.000000   0.000000   0.000000  -0.005865
   84  O  3 ZZY  -0.003208  -0.008871   0.000000   0.000000  -0.000000
   85  O  3 XYZ  -0.000000  -0.000000   0.000000   0.011210  -0.000000
   86  O  3  S   -0.000000  -0.000000   2.930168   0.000000  -0.000000
   87  O  3  X   -0.000000  -0.000000   0.000000   0.000000   1.976733
   88  O  3  Y   -3.719447   1.654973   0.000000   0.000000  -0.000000
   89  O  3  Z   -0.000000  -0.000000   0.531235   0.000000  -0.000000
   90  O  3 XX   -0.000000  -0.000000  -0.163343   0.000000  -0.000000
   91  O  3 YY   -0.000000  -0.000000   0.782529   0.000000  -0.000000
   92  O  3 ZZ    0.000000  -0.000000  -0.619185   0.000000  -0.000000
   93  O  3 XY   -0.000000  -0.000000   0.000000   0.719660  -0.000000
   94  O  3 XZ   -0.000000  -0.000000   0.000000   0.000000  -0.572129
   95  O  3 YZ    0.475507  -0.756003   0.000000   0.000000  -0.000000
   96  O  3 XXX  -0.000000  -0.000000   0.000000   0.000000  -0.099493
   97  O  3 YYY  -0.018131  -0.013690   0.000000   0.000000  -0.000000
   98  O  3 ZZZ  -0.000000  -0.000000   0.059547   0.000000  -0.000000
   99  O  3 XXY   0.035238  -0.046259   0.000000   0.000000  -0.000000
  100  O  3 XXZ  -0.000000  -0.000000  -0.017183   0.000000  -0.000000
  101  O  3 YYX  -0.000000  -0.000000   0.000000   0.000000   0.087760
  102  O  3 YYZ  -0.000000  -0.000000  -0.062707   0.000000  -0.000000
  103  O  3 ZZX  -0.000000  -0.000000   0.000000   0.000000   0.045723
  104  O  3 ZZY  -0.010913   0.064626   0.000000   0.000000  -0.000000
  105  O  3 XYZ  -0.000000  -0.000000   0.000000  -0.099470  -0.000000

                     16         17         18         19         20
                    0.3123     0.3661     0.4417     0.4696     0.6020
                     A          A          A          A          A   
    1  H  1  S   -0.013368   0.017138  -0.031412   0.014054  -0.105972
    2  H  1  S   -1.445394  -0.310041  -0.244685   1.364538   2.704891
    3  H  1  S   -3.678912   4.313901  -6.749016  11.963823   6.490843
    4  H  1  X    0.000000   0.000000  -0.000000   0.000000  -0.000000
    5  H  1  Y    0.001952  -0.004779   0.017171   0.002162   0.018614
    6  H  1  Z   -0.011195   0.003662   0.012934  -0.004126   0.007212
    7  H  1  X    0.000000   0.000000  -0.000000   0.000000  -0.000000
    8  H  1  Y   -0.489733   0.247148  -0.364543   0.484740   0.525475
    9  H  1  Z   -0.056326  -0.170822  -0.311909   0.529063   0.326946
   10  H  1 XX    0.018890   0.005559   0.011219  -0.024997  -0.015562
   11  H  1 YY   -0.022464   0.000745  -0.004799   0.019802   0.020298
   12  H  1 ZZ    0.003574  -0.006304  -0.006420   0.005196  -0.004736
   13  H  1 XY    0.000000   0.000000  -0.000000   0.000000  -0.000000
   14  H  1 XZ    0.000000   0.000000  -0.000000   0.000000  -0.000000
   15  H  1 YZ   -0.016971   0.012191  -0.020788   0.038753   0.020972
   16  H  1  S   -0.260091  -0.722373  -0.705739   2.133209   0.785334
   17  H  1  X    0.000000   0.000000  -0.000000   0.000000  -0.000000
   18  H  1  Y   -0.033676   4.551960  -2.242848   3.615452   1.184588
   19  H  1  Z    1.018161  -1.842770  -1.821013   2.398686  -0.073305
   20  H  1 XX   -0.044197  -0.195711   0.218192  -0.176236   0.284935
   21  H  1 YY   -0.057480   0.524469  -0.228371   0.079449  -0.074134
   22  H  1 ZZ    0.101677  -0.328758   0.010179   0.096787  -0.210800
   23  H  1 XY    0.000000   0.000000  -0.000000   0.000000  -0.000000
   24  H  1 XZ    0.000000   0.000000  -0.000000   0.000000  -0.000000
   25  H  1 YZ    0.171105  -0.152498  -0.396190   0.305605  -0.349540
   26  H  2  S   -0.013368  -0.017138  -0.031412  -0.014054   0.105972
   27  H  2  S   -1.445394   0.310041  -0.244685  -1.364538  -2.704891
   28  H  2  S   -3.678912  -4.313901  -6.749016 -11.963823  -6.490843
   29  H  2  X    0.000000   0.000000  -0.000000   0.000000  -0.000000
   30  H  2  Y   -0.001952  -0.004779  -0.017171   0.002162   0.018614
   31  H  2  Z   -0.011195  -0.003662   0.012934   0.004126  -0.007212
   32  H  2  X    0.000000   0.000000  -0.000000   0.000000  -0.000000
   33  H  2  Y    0.489733   0.247148   0.364543   0.484740   0.525475
   34  H  2  Z   -0.056326   0.170822  -0.311909  -0.529063  -0.326946
   35  H  2 XX    0.018890  -0.005559   0.011219   0.024997   0.015562
   36  H  2 YY   -0.022464  -0.000745  -0.004799  -0.019802  -0.020298
   37  H  2 ZZ    0.003574   0.006304  -0.006420  -0.005196   0.004736
   38  H  2 XY    0.000000   0.000000  -0.000000   0.000000  -0.000000
   39  H  2 XZ    0.000000   0.000000  -0.000000   0.000000  -0.000000
   40  H  2 YZ    0.016971   0.012191   0.020788   0.038753   0.020972
   41  H  2  S   -0.260091   0.722373  -0.705739  -2.133209  -0.785334
   42  H  2  X    0.000000   0.000000  -0.000000   0.000000  -0.000000
   43  H  2  Y    0.033676   4.551960   2.242848   3.615452   1.184588
   44  H  2  Z    1.018161   1.842770  -1.821013  -2.398686   0.073305
   45  H  2 XX   -0.044197   0.195711   0.218192   0.176236  -0.284935
   46  H  2 YY   -0.057480  -0.524469  -0.228371  -0.079449   0.074134
   47  H  2 ZZ    0.101677   0.328758   0.010179  -0.096787   0.210800
   48  H  2 XY    0.000000   0.000000  -0.000000   0.000000  -0.000000
   49  H  2 XZ    0.000000   0.000000  -0.000000   0.000000  -0.000000
   50  H  2 YZ   -0.171105  -0.152498   0.396190   0.305605  -0.349540
   51  O  3  S   -0.018627   0.000000   0.013425   0.000000  -0.000000
   52  O  3  S   -0.075498   0.000000   0.207901  -0.000000  -0.000000
   53  O  3  S   -0.044349   0.000000   0.058960   0.000000  -0.000000
   54  O  3  S    1.572028   0.000000   5.426798  -0.000000   0.000000
   55  O  3  X    0.000000   0.000000  -0.000000   0.000000  -0.000000
   56  O  3  Y    0.000000  -0.015425   0.000000   0.160427  -0.077104
   57  O  3  Z   -0.084816   0.000000  -0.099535   0.000000  -0.000000
   58  O  3  X    0.000000   0.000000  -0.000000   0.000000  -0.000000
   59  O  3  Y    0.000000   0.023807   0.000000   0.515532  -0.018863
   60  O  3  Z   -0.187447  -0.000000  -0.347926   0.000000  -0.000000
   61  O  3  X    0.000000   0.000000  -0.000000   0.000000  -0.000000
   62  O  3  Y    0.000000  -1.203271   0.000000   3.470872   4.124351
   63  O  3  Z   -2.581662  -0.000000  -0.728556   0.000000  -0.000000
   64  O  3 XX    0.006125   0.000000   0.002153   0.000000  -0.000000
   65  O  3 YY   -0.000944   0.000000  -0.004582   0.000000  -0.000000
   66  O  3 ZZ   -0.005182   0.000000   0.002430   0.000000  -0.000000
   67  O  3 XY    0.000000   0.000000  -0.000000   0.000000  -0.000000
   68  O  3 XZ    0.000000   0.000000  -0.000000   0.000000  -0.000000
   69  O  3 YZ    0.000000   0.002627  -0.000000   0.005166  -0.012239
   70  O  3 XX   -0.076836   0.000000  -0.061332   0.000000  -0.000000
   71  O  3 YY    0.029076   0.000000   0.052373   0.000000  -0.000000
   72  O  3 ZZ    0.047761   0.000000   0.008959   0.000000  -0.000000
   73  O  3 XY    0.000000   0.000000  -0.000000   0.000000  -0.000000
   74  O  3 XZ    0.000000   0.000000  -0.000000   0.000000  -0.000000
   75  O  3 YZ    0.000000  -0.023392  -0.000000  -0.199290  -0.225273
   76  O  3 XXX   0.000000   0.000000  -0.000000   0.000000  -0.000000
   77  O  3 YYY   0.000000   0.007970  -0.000000  -0.000961   0.000811
   78  O  3 ZZZ   0.005322   0.000000   0.004937   0.000000  -0.000000
   79  O  3 XXY   0.000000  -0.002492  -0.000000  -0.011434   0.010215
   80  O  3 XXZ  -0.005530   0.000000   0.009919   0.000000  -0.000000
   81  O  3 YYX   0.000000   0.000000  -0.000000   0.000000  -0.000000
   82  O  3 YYZ  -0.001609   0.000000  -0.016542   0.000000  -0.000000
   83  O  3 ZZX   0.000000   0.000000  -0.000000   0.000000  -0.000000
   84  O  3 ZZY   0.000000  -0.008201  -0.000000   0.012723  -0.011303
   85  O  3 XYZ   0.000000   0.000000  -0.000000   0.000000  -0.000000
   86  O  3  S    7.015104   0.000000  10.943841  -0.000000  -0.000000
   87  O  3  X    0.000000   0.000000  -0.000000   0.000000  -0.000000
   88  O  3  Y    0.000000  -3.308188   0.000000   3.136702   2.187600
   89  O  3  Z   -2.461299  -0.000000  -0.887202   0.000000  -0.000000
   90  O  3 XX   -0.543670   0.000000   0.294833  -0.000000  -0.000000
   91  O  3 YY    0.083101   0.000000  -0.233978   0.000000   0.000000
   92  O  3 ZZ    0.460569   0.000000  -0.060855   0.000000  -0.000000
   93  O  3 XY    0.000000   0.000000  -0.000000   0.000000  -0.000000
   94  O  3 XZ    0.000000   0.000000  -0.000000   0.000000  -0.000000
   95  O  3 YZ   -0.000000   0.082382  -0.000000  -0.184274  -2.642184
   96  O  3 XXX   0.000000   0.000000  -0.000000   0.000000  -0.000000
   97  O  3 YYY   0.000000  -0.073598  -0.000000   0.052222  -0.041352
   98  O  3 ZZZ  -0.013732   0.000000  -0.017067   0.000000  -0.000000
   99  O  3 XXY   0.000000   0.022046  -0.000000  -0.022786  -0.148997
  100  O  3 XXZ   0.083641   0.000000  -0.044934   0.000000  -0.000000
  101  O  3 YYX   0.000000   0.000000  -0.000000   0.000000  -0.000000
  102  O  3 YYZ  -0.065218   0.000000   0.067831  -0.000000  -0.000000
  103  O  3 ZZX   0.000000   0.000000  -0.000000   0.000000  -0.000000
  104  O  3 ZZY   0.000000   0.076696  -0.000000  -0.047278   0.204477
  105  O  3 XYZ   0.000000   0.000000  -0.000000   0.000000  -0.000000

                     21         22         23         24         25
                    0.6583     0.7103     0.7208     0.7310     0.8351
                     A          A          A          A          A   
    1  H  1  S    0.062421   0.057145  -0.000000   0.000000  -0.071482
    2  H  1  S   -0.315294  -0.699437  -0.000000   0.000000  -3.188965
    3  H  1  S   -3.251009  -2.341589  -0.000000   0.000000   0.034553
    4  H  1  X    0.000000   0.000000  -0.036929   0.032504  -0.000000
    5  H  1  Y   -0.021779   0.025477  -0.000000   0.000000  -0.028160
    6  H  1  Z    0.032482  -0.018864  -0.000000   0.000000  -0.022961
    7  H  1  X    0.000000   0.000000   0.709421  -0.475074  -0.000000
    8  H  1  Y    0.050280  -0.514339  -0.000000   0.000000  -0.152507
    9  H  1  Z   -0.687089   0.127651  -0.000000   0.000000  -0.556360
   10  H  1 XX   -0.000286   0.019701  -0.000000   0.000000   0.004022
   11  H  1 YY    0.010573  -0.013816  -0.000000   0.000000   0.026309
   12  H  1 ZZ   -0.010287  -0.005885  -0.000000   0.000000  -0.030331
   13  H  1 XY    0.000000   0.000000   0.018909  -0.008277  -0.000000
   14  H  1 XZ    0.000000   0.000000   0.013072   0.002238  -0.000000
   15  H  1 YZ   -0.028817   0.000137  -0.000000   0.000000  -0.018628
   16  H  1  S   -0.146613  -0.075145  -0.000000   0.000000  -0.097277
   17  H  1  X    0.000000   0.000000   1.717175  -1.438399  -0.000000
   18  H  1  Y    0.441766  -0.459104  -0.000000   0.000000   0.020182
   19  H  1  Z   -1.125618   0.852933  -0.000000   0.000000  -0.317216
   20  H  1 XX   -0.003062  -0.163361  -0.000000   0.000000  -0.084011
   21  H  1 YY    0.565014  -0.308821  -0.000000   0.000000  -0.000445
   22  H  1 ZZ   -0.561951   0.472182  -0.000000   0.000000   0.084456
   23  H  1 XY    0.000000   0.000000   0.719601  -0.309454  -0.000000
   24  H  1 XZ    0.000000   0.000000   0.520142  -0.488032  -0.000000
   25  H  1 YZ   -0.122566   0.029261  -0.000000   0.000000  -0.423157
   26  H  2  S    0.062421   0.057145  -0.000000   0.000000  -0.071482
   27  H  2  S   -0.315294  -0.699437  -0.000000   0.000000  -3.188965
   28  H  2  S   -3.251009  -2.341589  -0.000000   0.000000   0.034553
   29  H  2  X    0.000000   0.000000   0.036929   0.032504  -0.000000
   30  H  2  Y    0.021779  -0.025477  -0.000000   0.000000   0.028160
   31  H  2  Z    0.032482  -0.018864  -0.000000   0.000000  -0.022961
   32  H  2  X    0.000000   0.000000  -0.709421  -0.475074  -0.000000
   33  H  2  Y   -0.050280   0.514339  -0.000000   0.000000   0.152507
   34  H  2  Z   -0.687089   0.127651  -0.000000   0.000000  -0.556360
   35  H  2 XX   -0.000286   0.019701  -0.000000   0.000000   0.004022
   36  H  2 YY    0.010573  -0.013816  -0.000000   0.000000   0.026309
   37  H  2 ZZ   -0.010287  -0.005885  -0.000000   0.000000  -0.030331
   38  H  2 XY    0.000000   0.000000   0.018909   0.008277  -0.000000
   39  H  2 XZ    0.000000   0.000000  -0.013072   0.002238  -0.000000
   40  H  2 YZ    0.028817  -0.000137  -0.000000   0.000000   0.018628
   41  H  2  S   -0.146613  -0.075145  -0.000000   0.000000  -0.097277
   42  H  2  X    0.000000   0.000000  -1.717175  -1.438399  -0.000000
   43  H  2  Y   -0.441766   0.459104  -0.000000   0.000000  -0.020182
   44  H  2  Z   -1.125618   0.852933  -0.000000   0.000000  -0.317216
   45  H  2 XX   -0.003062  -0.163361  -0.000000   0.000000  -0.084011
   46  H  2 YY    0.565014  -0.308821  -0.000000   0.000000  -0.000445
   47  H  2 ZZ   -0.561951   0.472182  -0.000000   0.000000   0.084456
   48  H  2 XY    0.000000   0.000000   0.719601   0.309454  -0.000000
   49  H  2 XZ    0.000000   0.000000  -0.520142  -0.488032  -0.000000
   50  H  2 YZ    0.122566  -0.029261  -0.000000   0.000000   0.423157
   51  O  3  S   -0.035893  -0.030949  -0.000000   0.000000   0.004395
   52  O  3  S   -0.095457  -0.099568  -0.000000   0.000000   0.098002
   53  O  3  S   -0.027088  -0.026377  -0.000000   0.000000  -0.015896
   54  O  3  S    1.822848   1.565453  -0.000000   0.000000   4.484581
   55  O  3  X    0.000000   0.000000  -0.000000   0.014124  -0.000000
   56  O  3  Y    0.000000   0.000000  -0.000000   0.000000  -0.000000
   57  O  3  Z   -0.004447   0.022758  -0.000000   0.000000   0.006680
   58  O  3  X    0.000000   0.000000  -0.000000   0.082525  -0.000000
   59  O  3  Y    0.000000   0.000000  -0.000000   0.000000  -0.000000
   60  O  3  Z   -0.088466  -0.098854  -0.000000   0.000000  -0.175236
   61  O  3  X    0.000000   0.000000  -0.000000   2.020700  -0.000000
   62  O  3  Y   -0.000000   0.000000  -0.000000   0.000000   0.000000
   63  O  3  Z    1.215962  -2.171147  -0.000000   0.000000  -1.781763
   64  O  3 XX   -0.017296  -0.029270  -0.000000   0.000000   0.008870
   65  O  3 YY    0.013038   0.008727  -0.000000   0.000000  -0.007324
   66  O  3 ZZ    0.004257   0.020543  -0.000000   0.000000  -0.001546
   67  O  3 XY    0.000000   0.000000   0.013163   0.000000  -0.000000
   68  O  3 XZ    0.000000   0.000000  -0.000000  -0.028629  -0.000000
   69  O  3 YZ    0.000000   0.000000  -0.000000   0.000000  -0.000000
   70  O  3 XX   -0.026703   0.025511  -0.000000   0.000000  -0.115480
   71  O  3 YY    0.168942  -0.049295  -0.000000   0.000000   0.175458
   72  O  3 ZZ   -0.142239   0.023784  -0.000000   0.000000  -0.059978
   73  O  3 XY    0.000000   0.000000   0.125971   0.000000  -0.000000
   74  O  3 XZ    0.000000   0.000000  -0.000000   0.010110  -0.000000
   75  O  3 YZ    0.000000   0.000000  -0.000000   0.000000  -0.000000
   76  O  3 XXX   0.000000   0.000000  -0.000000   0.015144  -0.000000
   77  O  3 YYY   0.000000   0.000000  -0.000000   0.000000  -0.000000
   78  O  3 ZZZ  -0.005905  -0.000206  -0.000000   0.000000  -0.020264
   79  O  3 XXY   0.000000   0.000000  -0.000000   0.000000  -0.000000
   80  O  3 XXZ   0.006733  -0.003868  -0.000000   0.000000   0.000708
   81  O  3 YYX   0.000000   0.000000  -0.000000  -0.022467  -0.000000
   82  O  3 YYZ   0.001189   0.004144  -0.000000   0.000000   0.026479
   83  O  3 ZZX   0.000000   0.000000  -0.000000   0.002149  -0.000000
   84  O  3 ZZY   0.000000   0.000000  -0.000000   0.000000  -0.000000
   85  O  3 XYZ   0.000000   0.000000   0.022045   0.000000  -0.000000
   86  O  3  S    5.029394   3.695148  -0.000000   0.000000   0.528524
   87  O  3  X    0.000000   0.000000  -0.000000   1.465645  -0.000000
   88  O  3  Y   -0.000000   0.000000  -0.000000   0.000000  -0.000000
   89  O  3  Z   -0.327705  -1.755354  -0.000000   0.000000   0.431423
   90  O  3 XX   -0.628482  -0.939387  -0.000000   0.000000  -0.678153
   91  O  3 YY    1.891649  -0.497220  -0.000000   0.000000   1.463329
   92  O  3 ZZ   -1.263167   1.436607  -0.000000   0.000000  -0.785176
   93  O  3 XY    0.000000   0.000000   2.091694   0.000000  -0.000000
   94  O  3 XZ    0.000000   0.000000  -0.000000  -1.448772  -0.000000
   95  O  3 YZ    0.000000  -0.000000  -0.000000   0.000000  -0.000000
   96  O  3 XXX   0.000000   0.000000  -0.000000  -0.135291  -0.000000
   97  O  3 YYY   0.000000   0.000000  -0.000000   0.000000  -0.000000
   98  O  3 ZZZ   0.123395  -0.036281  -0.000000   0.000000   0.237061
   99  O  3 XXY   0.000000   0.000000  -0.000000   0.000000  -0.000000
  100  O  3 XXZ  -0.036813   0.059916  -0.000000   0.000000   0.036966
  101  O  3 YYX   0.000000   0.000000  -0.000000   0.157874  -0.000000
  102  O  3 YYZ  -0.128739  -0.011239  -0.000000   0.000000  -0.355016
  103  O  3 ZZX   0.000000   0.000000  -0.000000   0.023638  -0.000000
  104  O  3 ZZY   0.000000   0.000000  -0.000000   0.000000  -0.000000
  105  O  3 XYZ   0.000000   0.000000  -0.256439   0.000000  -0.000000

                     26         27         28         29         30
                    0.8468     0.8877     0.9165     0.9189     0.9238
                     A          A          A          A          A   
    1  H  1  S    0.000000   0.045791  -0.005227  -0.000000   0.000000
    2  H  1  S    0.000000  -5.156328   2.346621  -0.000000   0.000000
    3  H  1  S    0.000000  -4.890514   0.886513  -0.000000   0.000000
    4  H  1  X    0.033624   0.000000   0.000000  -0.000573   0.001205
    5  H  1  Y    0.000000  -0.035467   0.019452  -0.000000   0.000000
    6  H  1  Z    0.000000  -0.053943  -0.001765  -0.000000   0.000000
    7  H  1  X   -0.680033   0.000000   0.000000  -0.353719   0.039382
    8  H  1  Y    0.000000  -1.705626   0.017818  -0.000000   0.000000
    9  H  1  Z    0.000000  -0.623606   0.150971  -0.000000   0.000000
   10  H  1 XX    0.000000   0.046759   0.022070  -0.000000   0.000000
   11  H  1 YY    0.000000  -0.060136   0.000758  -0.000000   0.000000
   12  H  1 ZZ    0.000000   0.013377  -0.022828  -0.000000   0.000000
   13  H  1 XY   -0.004369   0.000000   0.000000  -0.028299   0.001889
   14  H  1 XZ   -0.021605   0.000000   0.000000  -0.006802  -0.030672
   15  H  1 YZ    0.000000  -0.080353  -0.004838  -0.000000   0.000000
   16  H  1  S    0.000000  -0.330080   0.480076  -0.000000   0.000000
   17  H  1  X   -1.339466   0.000000   0.000000  -0.757914   0.508996
   18  H  1  Y    0.000000  -0.731943  -0.320047  -0.000000   0.000000
   19  H  1  Z    0.000000   0.112129   0.763225  -0.000000   0.000000
   20  H  1 XX    0.000000   0.238832  -0.528319  -0.000000   0.000000
   21  H  1 YY    0.000000  -0.333199  -0.238349  -0.000000   0.000000
   22  H  1 ZZ    0.000000   0.094366   0.766668  -0.000000   0.000000
   23  H  1 XY   -1.169064   0.000000   0.000000  -0.112734   0.430135
   24  H  1 XZ   -0.179540   0.000000   0.000000  -0.926570   0.941846
   25  H  1 YZ    0.000000   0.401073   0.260765  -0.000000   0.000000
   26  H  2  S    0.000000   0.045791   0.005227  -0.000000   0.000000
   27  H  2  S    0.000000  -5.156328  -2.346621  -0.000000   0.000000
   28  H  2  S    0.000000  -4.890514  -0.886513  -0.000000   0.000000
   29  H  2  X    0.033624   0.000000   0.000000  -0.000573  -0.001205
   30  H  2  Y    0.000000   0.035467   0.019452  -0.000000   0.000000
   31  H  2  Z    0.000000  -0.053943   0.001765  -0.000000   0.000000
   32  H  2  X   -0.680033   0.000000   0.000000  -0.353719  -0.039382
   33  H  2  Y    0.000000   1.705626   0.017818  -0.000000   0.000000
   34  H  2  Z    0.000000  -0.623606  -0.150971  -0.000000   0.000000
   35  H  2 XX    0.000000   0.046759  -0.022070  -0.000000   0.000000
   36  H  2 YY    0.000000  -0.060136  -0.000758  -0.000000   0.000000
   37  H  2 ZZ    0.000000   0.013377   0.022828  -0.000000   0.000000
   38  H  2 XY    0.004369   0.000000   0.000000   0.028299   0.001889
   39  H  2 XZ   -0.021605   0.000000   0.000000  -0.006802   0.030672
   40  H  2 YZ    0.000000   0.080353  -0.004838  -0.000000   0.000000
   41  H  2  S    0.000000  -0.330080  -0.480076  -0.000000   0.000000
   42  H  2  X   -1.339466   0.000000   0.000000  -0.757914  -0.508996
   43  H  2  Y    0.000000   0.731943  -0.320047  -0.000000   0.000000
   44  H  2  Z    0.000000   0.112129  -0.763225  -0.000000   0.000000
   45  H  2 XX    0.000000   0.238832   0.528319  -0.000000   0.000000
   46  H  2 YY    0.000000  -0.333199   0.238349  -0.000000   0.000000
   47  H  2 ZZ    0.000000   0.094366  -0.766668  -0.000000   0.000000
   48  H  2 XY    1.169064   0.000000   0.000000   0.112734   0.430135
   49  H  2 XZ   -0.179540   0.000000   0.000000  -0.926570  -0.941846
   50  H  2 YZ    0.000000  -0.401073   0.260765  -0.000000   0.000000
   51  O  3  S    0.000000  -0.042860   0.000000  -0.000000   0.000000
   52  O  3  S    0.000000   0.014139   0.000000  -0.000000   0.000000
   53  O  3  S    0.000000  -0.074484   0.000000  -0.000000   0.000000
   54  O  3  S    0.000000   9.365233  -0.000000  -0.000000   0.000000
   55  O  3  X   -0.120431   0.000000   0.000000  -0.158486   0.000000
   56  O  3  Y    0.000000   0.000000   0.026931  -0.000000   0.000000
   57  O  3  Z    0.000000   0.237723   0.000000  -0.000000   0.000000
   58  O  3  X   -0.203608   0.000000   0.000000  -0.379717   0.000000
   59  O  3  Y    0.000000   0.000000   0.185844  -0.000000   0.000000
   60  O  3  Z    0.000000  -0.092928   0.000000  -0.000000   0.000000
   61  O  3  X    3.692028   0.000000   0.000000   2.688039   0.000000
   62  O  3  Y    0.000000   0.000000   3.032407  -0.000000   0.000000
   63  O  3  Z    0.000000  -6.920039   0.000000  -0.000000   0.000000
   64  O  3 XX    0.000000   0.016580   0.000000  -0.000000   0.000000
   65  O  3 YY    0.000000   0.001217   0.000000  -0.000000   0.000000
   66  O  3 ZZ    0.000000  -0.017797   0.000000  -0.000000   0.000000
   67  O  3 XY    0.000000   0.000000   0.000000  -0.000000  -0.028576
   68  O  3 XZ    0.015181   0.000000   0.000000   0.028249   0.000000
   69  O  3 YZ    0.000000   0.000000  -0.006580  -0.000000   0.000000
   70  O  3 XX    0.000000  -0.376123   0.000000  -0.000000   0.000000
   71  O  3 YY    0.000000   0.236685   0.000000  -0.000000   0.000000
   72  O  3 ZZ    0.000000   0.139438   0.000000  -0.000000   0.000000
   73  O  3 XY    0.000000   0.000000   0.000000  -0.000000   0.139319
   74  O  3 XZ   -0.146023   0.000000   0.000000  -0.168735   0.000000
   75  O  3 YZ    0.000000   0.000000  -0.009979  -0.000000   0.000000
   76  O  3 XXX   0.018081   0.000000   0.000000   0.005458   0.000000
   77  O  3 YYY   0.000000   0.000000  -0.018012  -0.000000   0.000000
   78  O  3 ZZZ   0.000000   0.026928   0.000000  -0.000000   0.000000
   79  O  3 XXY   0.000000   0.000000   0.029660  -0.000000   0.000000
   80  O  3 XXZ   0.000000  -0.011051   0.000000  -0.000000   0.000000
   81  O  3 YYX   0.005553   0.000000   0.000000  -0.031324   0.000000
   82  O  3 YYZ   0.000000  -0.025076   0.000000  -0.000000   0.000000
   83  O  3 ZZX  -0.029811   0.000000   0.000000   0.024002   0.000000
   84  O  3 ZZY   0.000000   0.000000  -0.005495  -0.000000   0.000000
   85  O  3 XYZ   0.000000   0.000000   0.000000  -0.000000  -0.002243
   86  O  3  S    0.000000   8.275563  -0.000000  -0.000000   0.000000
   87  O  3  X    0.770897   0.000000   0.000000   0.195037   0.000000
   88  O  3  Y    0.000000   0.000000   0.967131  -0.000000   0.000000
   89  O  3  Z    0.000000  -1.202000   0.000000  -0.000000   0.000000
   90  O  3 XX    0.000000  -1.802432   0.000000  -0.000000   0.000000
   91  O  3 YY    0.000000   0.779188  -0.000000  -0.000000   0.000000
   92  O  3 ZZ    0.000000   1.023244  -0.000000  -0.000000   0.000000
   93  O  3 XY    0.000000   0.000000   0.000000  -0.000000   0.109034
   94  O  3 XZ   -1.421062   0.000000   0.000000   0.587766   0.000000
   95  O  3 YZ    0.000000  -0.000000  -1.330783  -0.000000   0.000000
   96  O  3 XXX  -0.180061   0.000000   0.000000  -0.104741   0.000000
   97  O  3 YYY   0.000000   0.000000   0.089965  -0.000000   0.000000
   98  O  3 ZZZ   0.000000  -0.023344   0.000000  -0.000000   0.000000
   99  O  3 XXY   0.000000   0.000000  -0.183416  -0.000000   0.000000
  100  O  3 XXZ   0.000000   0.249007   0.000000  -0.000000   0.000000
  101  O  3 YYX   0.059299   0.000000   0.000000   0.238958   0.000000
  102  O  3 YYZ   0.000000  -0.217688   0.000000  -0.000000   0.000000
  103  O  3 ZZX   0.182278   0.000000   0.000000  -0.098433   0.000000
  104  O  3 ZZY   0.000000   0.000000   0.062716  -0.000000   0.000000
  105  O  3 XYZ   0.000000   0.000000   0.000000  -0.000000   0.008315

                     31         32         33         34         35
                    0.9309     0.9679     1.0302     1.0512     1.0861
                     A          A          A          A          A   
    1  H  1  S   -0.036332   0.017508   0.107076   0.127619  -0.000000
    2  H  1  S    1.820119   1.630517   1.372834   1.587770  -0.000000
    3  H  1  S    1.343861  -2.173602  -5.497997  -7.984289  -0.000000
    4  H  1  X   -0.000000  -0.000000   0.000000   0.000000  -0.021592
    5  H  1  Y    0.033323   0.013025   0.027653   0.018809  -0.000000
    6  H  1  Z   -0.026937   0.013099   0.030949  -0.006221  -0.000000
    7  H  1  X   -0.000000  -0.000000   0.000000   0.000000   0.522367
    8  H  1  Y   -0.196755  -0.060642  -0.558883  -0.885163  -0.000000
    9  H  1  Z    0.909116  -0.064892  -0.451975  -0.736313  -0.000000
   10  H  1 XX   -0.033593   0.024002  -0.000245   0.033333  -0.000000
   11  H  1 YY    0.003509  -0.003662  -0.003108  -0.022382  -0.000000
   12  H  1 ZZ    0.030084  -0.020340   0.003353  -0.010951  -0.000000
   13  H  1 XY   -0.000000  -0.000000   0.000000   0.000000   0.047089
   14  H  1 XZ   -0.000000  -0.000000   0.000000   0.000000   0.039753
   15  H  1 YZ    0.007851   0.003278  -0.005860  -0.058164  -0.000000
   16  H  1  S    0.707352  -0.111799  -0.343077  -0.890975  -0.000000
   17  H  1  X   -0.000000  -0.000000   0.000000   0.000000  -0.064566
   18  H  1  Y   -2.314857  -0.609165  -2.149438  -3.241683  -0.000000
   19  H  1  Z    2.357928  -0.044680  -1.881086  -1.739150  -0.000000
   20  H  1 XX    0.616947  -0.762808   0.757298   0.906617  -0.000000
   21  H  1 YY   -1.622515  -0.100412  -0.560415  -0.884096  -0.000000
   22  H  1 ZZ    1.005568   0.863220  -0.196883  -0.022521  -0.000000
   23  H  1 XY   -0.000000  -0.000000   0.000000   0.000000  -0.328734
   24  H  1 XZ   -0.000000  -0.000000   0.000000   0.000000  -0.594983
   25  H  1 YZ    0.473831  -0.152350  -1.185252  -1.169436  -0.000000
   26  H  2  S    0.036332   0.017508   0.107076  -0.127619  -0.000000
   27  H  2  S   -1.820119   1.630517   1.372834  -1.587770  -0.000000
   28  H  2  S   -1.343861  -2.173602  -5.497997   7.984289  -0.000000
   29  H  2  X   -0.000000  -0.000000   0.000000   0.000000  -0.021592
   30  H  2  Y    0.033323  -0.013025  -0.027653   0.018809  -0.000000
   31  H  2  Z    0.026937   0.013099   0.030949   0.006221  -0.000000
   32  H  2  X   -0.000000  -0.000000   0.000000   0.000000   0.522367
   33  H  2  Y   -0.196755   0.060642   0.558883  -0.885163  -0.000000
   34  H  2  Z   -0.909116  -0.064892  -0.451975   0.736313  -0.000000
   35  H  2 XX    0.033593   0.024002  -0.000245  -0.033333  -0.000000
   36  H  2 YY   -0.003509  -0.003662  -0.003108   0.022382  -0.000000
   37  H  2 ZZ   -0.030084  -0.020340   0.003353   0.010951  -0.000000
   38  H  2 XY   -0.000000  -0.000000   0.000000   0.000000  -0.047089
   39  H  2 XZ   -0.000000  -0.000000   0.000000   0.000000   0.039753
   40  H  2 YZ    0.007851  -0.003278   0.005860  -0.058164  -0.000000
   41  H  2  S   -0.707352  -0.111799  -0.343077   0.890975  -0.000000
   42  H  2  X   -0.000000  -0.000000   0.000000   0.000000  -0.064566
   43  H  2  Y   -2.314857   0.609165   2.149438  -3.241683  -0.000000
   44  H  2  Z   -2.357928  -0.044680  -1.881086   1.739150  -0.000000
   45  H  2 XX   -0.616947  -0.762808   0.757298  -0.906617  -0.000000
   46  H  2 YY    1.622515  -0.100412  -0.560415   0.884096  -0.000000
   47  H  2 ZZ   -1.005568   0.863220  -0.196883   0.022521  -0.000000
   48  H  2 XY   -0.000000  -0.000000   0.000000   0.000000   0.328734
   49  H  2 XZ   -0.000000  -0.000000   0.000000   0.000000  -0.594983
   50  H  2 YZ    0.473831   0.152350   1.185252  -1.169436  -0.000000
   51  O  3  S   -0.000000   0.006783   0.066394   0.000000  -0.000000
   52  O  3  S   -0.000000  -0.023628  -0.102966   0.000000  -0.000000
   53  O  3  S   -0.000000   0.003813  -0.028495   0.000000  -0.000000
   54  O  3  S   -0.000000  -0.710395   6.089948  -0.000000  -0.000000
   55  O  3  X   -0.000000  -0.000000   0.000000   0.000000   0.166327
   56  O  3  Y   -0.101867  -0.000000   0.000000   0.259241  -0.000000
   57  O  3  Z   -0.000000   0.076865   0.131293  -0.000000  -0.000000
   58  O  3  X   -0.000000  -0.000000   0.000000   0.000000   0.581258
   59  O  3  Y   -0.092617  -0.000000  -0.000000  -0.218878  -0.000000
   60  O  3  Z   -0.000000   0.176038  -0.064347   0.000000  -0.000000
   61  O  3  X   -0.000000  -0.000000   0.000000   0.000000  -0.685774
   62  O  3  Y    5.906046  -0.000000   0.000000   0.920649  -0.000000
   63  O  3  Z    0.000000  -0.268610   1.020663  -0.000000  -0.000000
   64  O  3 XX   -0.000000   0.012903   0.001565   0.000000  -0.000000
   65  O  3 YY   -0.000000   0.010290  -0.000299   0.000000  -0.000000
   66  O  3 ZZ   -0.000000  -0.023193  -0.001267   0.000000  -0.000000
   67  O  3 XY   -0.000000  -0.000000   0.000000   0.000000  -0.000000
   68  O  3 XZ   -0.000000  -0.000000   0.000000   0.000000   0.007522
   69  O  3 YZ    0.003194  -0.000000   0.000000   0.010084  -0.000000
   70  O  3 XX   -0.000000  -0.064540  -0.046610   0.000000  -0.000000
   71  O  3 YY   -0.000000  -0.038842   0.069624   0.000000  -0.000000
   72  O  3 ZZ   -0.000000   0.103382  -0.023014   0.000000  -0.000000
   73  O  3 XY   -0.000000  -0.000000   0.000000   0.000000  -0.000000
   74  O  3 XZ   -0.000000  -0.000000   0.000000   0.000000   0.004042
   75  O  3 YZ   -0.047057  -0.000000   0.000000   0.222077  -0.000000
   76  O  3 XXX  -0.000000  -0.000000   0.000000   0.000000   0.000132
   77  O  3 YYY  -0.014154  -0.000000   0.000000   0.002331  -0.000000
   78  O  3 ZZZ  -0.000000  -0.019736   0.004709   0.000000  -0.000000
   79  O  3 XXY  -0.001389  -0.000000   0.000000   0.023193  -0.000000
   80  O  3 XXZ  -0.000000   0.022479   0.003095   0.000000  -0.000000
   81  O  3 YYX  -0.000000  -0.000000   0.000000   0.000000  -0.007566
   82  O  3 YYZ  -0.000000   0.004000  -0.009412   0.000000  -0.000000
   83  O  3 ZZX  -0.000000  -0.000000   0.000000   0.000000   0.007389
   84  O  3 ZZY   0.020378  -0.000000   0.000000  -0.026320  -0.000000
   85  O  3 XYZ  -0.000000  -0.000000   0.000000   0.000000  -0.000000
   86  O  3  S   -0.000000   3.012748   6.418261  -0.000000  -0.000000
   87  O  3  X   -0.000000  -0.000000   0.000000   0.000000   0.190187
   88  O  3  Y    2.911876  -0.000000  -0.000000  -0.795752  -0.000000
   89  O  3  Z    0.000000  -0.523999  -0.192289   0.000000  -0.000000
   90  O  3 XX    0.000000   1.748552   0.921315  -0.000000  -0.000000
   91  O  3 YY   -0.000000  -0.856240  -0.767118   0.000000  -0.000000
   92  O  3 ZZ   -0.000000  -0.892312  -0.154197   0.000000  -0.000000
   93  O  3 XY   -0.000000  -0.000000   0.000000   0.000000  -0.000000
   94  O  3 XZ   -0.000000  -0.000000   0.000000   0.000000   0.930105
   95  O  3 YZ   -0.732266  -0.000000  -0.000000  -2.019901  -0.000000
   96  O  3 XXX  -0.000000  -0.000000   0.000000   0.000000   0.099592
   97  O  3 YYY   0.239552  -0.000000   0.000000  -0.026222  -0.000000
   98  O  3 ZZZ  -0.000000   0.084208  -0.070384   0.000000  -0.000000
   99  O  3 XXY  -0.079037  -0.000000  -0.000000  -0.123265  -0.000000
  100  O  3 XXZ  -0.000000  -0.137983  -0.076831   0.000000  -0.000000
  101  O  3 YYX  -0.000000  -0.000000   0.000000   0.000000  -0.054774
  102  O  3 YYZ  -0.000000   0.025006   0.171260  -0.000000  -0.000000
  103  O  3 ZZX  -0.000000  -0.000000   0.000000   0.000000  -0.078843
  104  O  3 ZZY  -0.242355  -0.000000   0.000000   0.158445  -0.000000
  105  O  3 XYZ  -0.000000  -0.000000   0.000000   0.000000  -0.000000

                     36         37         38         39         40
                    1.1152     1.1790     1.1857     1.2536     1.5178
                     A          A          A          A          A   
    1  H  1  S    0.004103   0.000000  -0.030889   0.086378   0.000000
    2  H  1  S    2.113719   0.000000  -1.935904   9.824092   0.000000
    3  H  1  S   -2.974941   0.000000  -0.888362  11.070469   0.000000
    4  H  1  X   -0.000000  -0.015867  -0.000000  -0.000000  -0.057180
    5  H  1  Y    0.023658   0.000000  -0.010901   0.105206   0.000000
    6  H  1  Z    0.000395   0.000000  -0.029302   0.052387   0.000000
    7  H  1  X   -0.000000   0.106538  -0.000000  -0.000000   2.403688
    8  H  1  Y    0.315162   0.000000  -0.641372   1.807204   0.000000
    9  H  1  Z   -0.547425   0.000000  -0.449660   1.137893   0.000000
   10  H  1 XX   -0.008762   0.000000   0.045593  -0.072036   0.000000
   11  H  1 YY    0.031429   0.000000  -0.052711   0.081134   0.000000
   12  H  1 ZZ   -0.022667   0.000000   0.007118  -0.009098   0.000000
   13  H  1 XY   -0.000000   0.039484  -0.000000  -0.000000   0.060891
   14  H  1 XZ   -0.000000  -0.038524  -0.000000  -0.000000   0.043124
   15  H  1 YZ   -0.039615   0.000000  -0.019481   0.115862   0.000000
   16  H  1  S   -0.043769   0.000000  -0.025050   0.882887   0.000000
   17  H  1  X   -0.000000  -0.367574  -0.000000  -0.000000   1.253755
   18  H  1  Y   -1.040419   0.000000   0.449817   2.609004   0.000000
   19  H  1  Z   -0.226866   0.000000  -0.317172   0.794432   0.000000
   20  H  1 XX    0.749630   0.000000  -0.497154   0.434932   0.000000
   21  H  1 YY    0.210716   0.000000   1.251451   0.144761   0.000000
   22  H  1 ZZ   -0.960346   0.000000  -0.754298  -0.579693   0.000000
   23  H  1 XY   -0.000000  -1.364576  -0.000000  -0.000000   0.841296
   24  H  1 XZ   -0.000000   0.692777  -0.000000  -0.000000   0.986231
   25  H  1 YZ    0.910589   0.000000  -0.385615  -0.513259   0.000000
   26  H  2  S   -0.004103   0.000000  -0.030889  -0.086378   0.000000
   27  H  2  S   -2.113719   0.000000  -1.935904  -9.824092   0.000000
   28  H  2  S    2.974941   0.000000  -0.888362 -11.070469   0.000000
   29  H  2  X   -0.000000   0.015867  -0.000000  -0.000000   0.057180
   30  H  2  Y    0.023658   0.000000   0.010901   0.105206   0.000000
   31  H  2  Z   -0.000395   0.000000  -0.029302  -0.052387   0.000000
   32  H  2  X   -0.000000  -0.106538  -0.000000  -0.000000  -2.403688
   33  H  2  Y    0.315162   0.000000   0.641372   1.807204   0.000000
   34  H  2  Z    0.547425   0.000000  -0.449660  -1.137893   0.000000
   35  H  2 XX    0.008762   0.000000   0.045593   0.072036   0.000000
   36  H  2 YY   -0.031429   0.000000  -0.052711  -0.081134   0.000000
   37  H  2 ZZ    0.022667   0.000000   0.007118   0.009098   0.000000
   38  H  2 XY   -0.000000   0.039484  -0.000000  -0.000000   0.060891
   39  H  2 XZ   -0.000000   0.038524  -0.000000  -0.000000  -0.043124
   40  H  2 YZ   -0.039615   0.000000   0.019481   0.115862   0.000000
   41  H  2  S    0.043769   0.000000  -0.025050  -0.882887   0.000000
   42  H  2  X   -0.000000   0.367574  -0.000000  -0.000000  -1.253755
   43  H  2  Y   -1.040419   0.000000  -0.449817   2.609004   0.000000
   44  H  2  Z    0.226866   0.000000  -0.317172  -0.794432   0.000000
   45  H  2 XX   -0.749630   0.000000  -0.497154  -0.434932   0.000000
   46  H  2 YY   -0.210716   0.000000   1.251451  -0.144761   0.000000
   47  H  2 ZZ    0.960346   0.000000  -0.754298   0.579693   0.000000
   48  H  2 XY   -0.000000  -1.364576  -0.000000  -0.000000   0.841296
   49  H  2 XZ   -0.000000  -0.692777  -0.000000  -0.000000  -0.986231
   50  H  2 YZ    0.910589   0.000000   0.385615  -0.513259   0.000000
   51  O  3  S   -0.000000   0.000000   0.016325  -0.000000   0.000000
   52  O  3  S   -0.000000   0.000000   0.080054  -0.000000   0.000000
   53  O  3  S   -0.000000   0.000000  -0.018970  -0.000000   0.000000
   54  O  3  S   -0.000000   0.000000   3.006350   0.000000   0.000000
   55  O  3  X   -0.000000   0.000000  -0.000000  -0.000000   0.000000
   56  O  3  Y    0.046627   0.000000  -0.000000  -0.112023   0.000000
   57  O  3  Z   -0.000000   0.000000   0.075599  -0.000000   0.000000
   58  O  3  X   -0.000000   0.000000  -0.000000  -0.000000   0.000000
   59  O  3  Y    0.148487   0.000000  -0.000000   0.439239   0.000000
   60  O  3  Z   -0.000000   0.000000   0.043231  -0.000000   0.000000
   61  O  3  X   -0.000000   0.000000  -0.000000  -0.000000   0.000000
   62  O  3  Y    0.040604   0.000000   0.000000  12.974663   0.000000
   63  O  3  Z   -0.000000   0.000000  -0.469796  -0.000000   0.000000
   64  O  3 XX   -0.000000   0.000000   0.012897  -0.000000   0.000000
   65  O  3 YY   -0.000000   0.000000  -0.038398  -0.000000   0.000000
   66  O  3 ZZ   -0.000000   0.000000   0.025502  -0.000000   0.000000
   67  O  3 XY   -0.000000   0.024080  -0.000000  -0.000000  -0.044035
   68  O  3 XZ   -0.000000   0.000000  -0.000000  -0.000000   0.000000
   69  O  3 YZ    0.001864   0.000000  -0.000000   0.052873   0.000000
   70  O  3 XX   -0.000000   0.000000  -0.165841  -0.000000   0.000000
   71  O  3 YY   -0.000000   0.000000   0.235322  -0.000000   0.000000
   72  O  3 ZZ   -0.000000   0.000000  -0.069481  -0.000000   0.000000
   73  O  3 XY   -0.000000  -0.102654  -0.000000  -0.000000   0.116095
   74  O  3 XZ   -0.000000   0.000000  -0.000000  -0.000000   0.000000
   75  O  3 YZ   -0.029968   0.000000  -0.000000  -0.715552   0.000000
[...]
     VIB  2

                       ATOM             X              Y              Z

                 1  H                0.000000      -1.423133      -0.040474
                 2  H                0.000000       1.423133      -0.040474
                 3  O               -0.010000       0.000000       1.025811
 ...... END OF ONE-ELECTRON INTEGRALS ......
 CPU     0: STEP CPU TIME=     0.00 TOTAL CPU TIME=       29.8 (    0.5 MIN)
 TOTAL WALL CLOCK TIME=       30.1 SECONDS, CPU UTILIZATION IS  98.87%
 TOTAL NUMBER OF NONZERO TWO-ELECTRON INTEGRALS =            13814556
        922 INTEGRAL RECORDS WERE STORED ON DISK FILE  8.
  ...... END OF TWO-ELECTRON INTEGRALS .....
 CPU     0: STEP CPU TIME=     0.48 TOTAL CPU TIME=       30.3 (    0.5 MIN)
 TOTAL WALL CLOCK TIME=       30.6 SECONDS, CPU UTILIZATION IS  98.82%

          --------------------------
                 RHF SCF CALCULATION
          --------------------------
     DENSITY MATRIX CONV=  1.00E-05

 ITER EX DEM     TOTAL ENERGY        E CHANGE  DENSITY CHANGE     ORB. GRAD
   1  0  0      -76.0611946287   -76.0611946287   0.001919321   0.000000000
          ---------------START SECOND ORDER SCF---------------
   2  1  0      -76.0612024288    -0.0000078001   0.000344168   0.000183582
   3  2  0      -76.0612030154    -0.0000005866   0.000185357   0.000076208
   4  3  0      -76.0612031154    -0.0000001000   0.000023598   0.000011287
   5  4  0      -76.0612031183    -0.0000000029   0.000012407   0.000004086
   6  5  0      -76.0612031189    -0.0000000005   0.000002000   0.000001492
   7  6  0      -76.0612031189    -0.0000000000   0.000000749   0.000000626

          -----------------
          DENSITY CONVERGED
          -----------------
     TIME TO FORM FOCK OPERATORS=       0.7 SECONDS (       0.1 SEC/ITER)
     TIME TO SOLVE SCF EQUATIONS=       0.0 SECONDS (       0.0 SEC/ITER)

 FINAL RHF ENERGY IS      -76.0612031189 AFTER   7 ITERATIONS
 ...... END OF RHF CALCULATION ......
 CPU     0: STEP CPU TIME=     0.73 TOTAL CPU TIME=       31.0 (    0.5 MIN)
 TOTAL WALL CLOCK TIME=       31.3 SECONDS, CPU UTILIZATION IS  98.88%
 ..... END OF 1-ELECTRON GRADIENT ......
 CPU     0: STEP CPU TIME=     0.01 TOTAL CPU TIME=       31.0 (    0.5 MIN)
 TOTAL WALL CLOCK TIME=       31.3 SECONDS, CPU UTILIZATION IS  98.88%
 ...... END OF 2-ELECTRON GRADIENT ......
 CPU     0: STEP CPU TIME=     0.67 TOTAL CPU TIME=       31.7 (    0.5 MIN)
 TOTAL WALL CLOCK TIME=       32.0 SECONDS, CPU UTILIZATION IS  98.91%

 UNITS ARE HARTREE/BOHR    E'X               E'Y               E'Z 
    1 H                0.000000140      -0.000011218      -0.000012270
    2 H                0.000000140       0.000011218      -0.000012270
    3 O               -0.000000280       0.000000000       0.000024541
  $VIB   
          IVIB=   2 IATOM=   3 ICOORD=   1 E=      -76.0612031189
  1.400465951E-07-1.121751465E-05-1.227032843E-05 1.400466046E-07 1.121751663E-05
 -1.227032949E-05-2.800932042E-07 0.000000000E+00 2.454065570E-05
  1.818653788E-02-1.027520109E-11-1.939384524E+00
1   ATOM  3
                                        -------------------
   COORD  2                             NUCLEAR COORDINATES
                                        -------------------
     VIB  2

                       ATOM             X              Y              Z

                 1  H                0.000000      -1.423133      -0.040474
                 2  H                0.000000       1.423133      -0.040474
                 3  O                0.000000      -0.010000       1.025811
 ...... END OF ONE-ELECTRON INTEGRALS ......
 CPU     0: STEP CPU TIME=     0.00 TOTAL CPU TIME=       31.7 (    0.5 MIN)
 TOTAL WALL CLOCK TIME=       32.0 SECONDS, CPU UTILIZATION IS  98.91%
 TOTAL NUMBER OF NONZERO TWO-ELECTRON INTEGRALS =             7281410
        487 INTEGRAL RECORDS WERE STORED ON DISK FILE  8.
  ...... END OF TWO-ELECTRON INTEGRALS .....
 CPU     0: STEP CPU TIME=     0.46 TOTAL CPU TIME=       32.1 (    0.5 MIN)
 TOTAL WALL CLOCK TIME=       32.5 SECONDS, CPU UTILIZATION IS  98.89%

          --------------------------
                 RHF SCF CALCULATION
          --------------------------
     DENSITY MATRIX CONV=  1.00E-05

 ITER EX DEM     TOTAL ENERGY        E CHANGE  DENSITY CHANGE     ORB. GRAD
   1  0  0      -76.0611474993   -76.0611474993   0.002368063   0.000000000
          ---------------START SECOND ORDER SCF---------------
   2  1  0      -76.0611618876    -0.0000143883   0.000198398   0.000281521
   3  2  0      -76.0611627088    -0.0000008212   0.000094218   0.000098338
   4  3  0      -76.0611628182    -0.0000001093   0.000016623   0.000009602
   5  4  0      -76.0611628196    -0.0000000014   0.000005407   0.000002630
   6  5  0      -76.0611628197    -0.0000000001   0.000001009   0.000000901

          -----------------
          DENSITY CONVERGED
          -----------------
     TIME TO FORM FOCK OPERATORS=       0.4 SECONDS (       0.1 SEC/ITER)
     TIME TO SOLVE SCF EQUATIONS=       0.0 SECONDS (       0.0 SEC/ITER)

 FINAL RHF ENERGY IS      -76.0611628197 AFTER   6 ITERATIONS
 ...... END OF RHF CALCULATION ......
 CPU     0: STEP CPU TIME=     0.41 TOTAL CPU TIME=       32.5 (    0.5 MIN)
 TOTAL WALL CLOCK TIME=       32.9 SECONDS, CPU UTILIZATION IS  98.91%
 ..... END OF 1-ELECTRON GRADIENT ......
 CPU     0: STEP CPU TIME=     0.00 TOTAL CPU TIME=       32.5 (    0.5 MIN)
 TOTAL WALL CLOCK TIME=       32.9 SECONDS, CPU UTILIZATION IS  98.91%
 ...... END OF 2-ELECTRON GRADIENT ......
 CPU     0: STEP CPU TIME=     1.10 TOTAL CPU TIME=       33.6 (    0.6 MIN)
 TOTAL WALL CLOCK TIME=       34.0 SECONDS, CPU UTILIZATION IS  98.94%

 UNITS ARE HARTREE/BOHR    E'X               E'Y               E'Z 
    1 H                0.000000000       0.004073831       0.003072200
    2 H                0.000000000       0.003986302      -0.002967843
    3 O                0.000000000      -0.008060133      -0.000104357
  $VIB   
          IVIB=   2 IATOM=   3 ICOORD=   2 E=      -76.0611628197
  0.000000000E+00 4.073830891E-03 3.072200109E-03 0.000000000E+00 3.986301719E-03
 -2.967843286E-03 0.000000000E+00-8.060132610E-03-1.043568258E-04
  0.000000000E+00 1.459823428E-02-1.939418187E+00
1   ATOM  3
                                        -------------------
   COORD  3                             NUCLEAR COORDINATES
                                        -------------------
     VIB  2

                       ATOM             X              Y              Z

                 1  H                0.000000      -1.423133      -0.040474
                 2  H                0.000000       1.423133      -0.040474
                 3  O                0.000000       0.000000       1.015811
 ...... END OF ONE-ELECTRON INTEGRALS ......
 CPU     0: STEP CPU TIME=     0.00 TOTAL CPU TIME=       33.6 (    0.6 MIN)
 TOTAL WALL CLOCK TIME=       34.0 SECONDS, CPU UTILIZATION IS  98.94%
 TOTAL NUMBER OF NONZERO TWO-ELECTRON INTEGRALS =             7265284
        485 INTEGRAL RECORDS WERE STORED ON DISK FILE  8.
  ...... END OF TWO-ELECTRON INTEGRALS .....
 CPU     0: STEP CPU TIME=     0.44 TOTAL CPU TIME=       34.1 (    0.6 MIN)
 TOTAL WALL CLOCK TIME=       34.4 SECONDS, CPU UTILIZATION IS  98.93%

          --------------------------
                 RHF SCF CALCULATION
          --------------------------
     DENSITY MATRIX CONV=  1.00E-05

 ITER EX DEM     TOTAL ENERGY        E CHANGE  DENSITY CHANGE     ORB. GRAD
   1  0  0      -76.0611647628   -76.0611647628   0.001756695   0.000000000
          ---------------START SECOND ORDER SCF---------------
   2  1  0      -76.0611760096    -0.0000112468   0.000337733   0.000209567
   3  2  0      -76.0611767305    -0.0000007209   0.000162027   0.000106079
   4  3  0      -76.0611768644    -0.0000001339   0.000024469   0.000021459
   5  4  0      -76.0611768711    -0.0000000068   0.000020621   0.000005649
   6  5  0      -76.0611768717    -0.0000000006   0.000002487   0.000001554
   7  6  0      -76.0611768717    -0.0000000000   0.000000895   0.000000431

          -----------------
          DENSITY CONVERGED
          -----------------
     TIME TO FORM FOCK OPERATORS=       0.4 SECONDS (       0.1 SEC/ITER)
     TIME TO SOLVE SCF EQUATIONS=       0.0 SECONDS (       0.0 SEC/ITER)

 FINAL RHF ENERGY IS      -76.0611768717 AFTER   7 ITERATIONS
 ...... END OF RHF CALCULATION ......
 CPU     0: STEP CPU TIME=     0.42 TOTAL CPU TIME=       34.5 (    0.6 MIN)
 TOTAL WALL CLOCK TIME=       34.9 SECONDS, CPU UTILIZATION IS  98.91%
 ..... END OF 1-ELECTRON GRADIENT ......
 CPU     0: STEP CPU TIME=     0.01 TOTAL CPU TIME=       34.5 (    0.6 MIN)
 TOTAL WALL CLOCK TIME=       34.9 SECONDS, CPU UTILIZATION IS  98.91%
 ...... END OF 2-ELECTRON GRADIENT ......
 CPU     0: STEP CPU TIME=     0.65 TOTAL CPU TIME=       35.2 (    0.6 MIN)
 TOTAL WALL CLOCK TIME=       35.5 SECONDS, CPU UTILIZATION IS  98.93%

 UNITS ARE HARTREE/BOHR    E'X               E'Y               E'Z 
    1 H                0.000000000       0.002397742       0.002627632
    2 H                0.000000000      -0.002397742       0.002627632
    3 O                0.000000000       0.000000000      -0.005255265
  $VIB   
          IVIB=   2 IATOM=   3 ICOORD=   3 E=      -76.0611768717
  0.000000000E+00 2.397741721E-03 2.627632325E-03 0.000000000E+00-2.397741720E-03
  2.627632324E-03 0.000000000E+00 0.000000000E+00-5.255264650E-03
  0.000000000E+00-4.650535921E-12-1.928224928E+00
 ...... END OF NUMERICAL HESSIAN CALCULATION ......
 CPU     0: STEP CPU TIME=     0.00 TOTAL CPU TIME=       35.2 (    0.6 MIN)
 TOTAL WALL CLOCK TIME=       35.5 SECONDS, CPU UTILIZATION IS  98.93%

          ---------------
          ENERGY GRADIENT
          ---------------

 UNITS ARE HARTREE/BOHR    E'X               E'Y               E'Z 
    1 H                0.000000000       0.000000034       0.000000065
    2 H                0.000000000      -0.000000034       0.000000065
    3 O                0.000000000       0.000000000      -0.000000130

          -------------------------------
          CARTESIAN FORCE CONSTANT MATRIX
          -------------------------------

                                   1                          2
                               H                          H         
                          X        Y        Z        X        Y        Z
  1   H            X 0.000011-0.000000 0.000000 0.000000 0.000000 0.000000
                   Y-0.000000 0.435818 0.269312-0.000000-0.032839-0.032676
                   Z 0.000000 0.269312 0.244091 0.000000 0.032676 0.017846
  2   H            X 0.000000-0.000000 0.000000 0.000011-0.000000 0.000000
                   Y 0.000000-0.032839 0.032676-0.000000 0.435818-0.269312
                   Z 0.000000-0.032676 0.017846 0.000000-0.269312 0.244091
  3   O            X-0.000013-0.000000-0.000000-0.000013-0.000000 0.000000
                   Y 0.000000-0.402993-0.301985 0.000000-0.402993 0.301985
                   Z-0.000000-0.236626-0.261930 0.000000 0.236626-0.261930

                                   3
                               O         
                          X        Y        Z
  3   O            X 0.000028 0.000000 0.000000
                   Y 0.000000 0.806013-0.000000
                   Z 0.000000-0.000000 0.523847

          ------------------------          ----------------
          DIPOLE DERIVATIVE TENSOR          (DEBYE/ANGSTROM)
          ------------------------          ----------------

        ATOM                 MU-X           MU-Y           MU-Z
     H          D/DX     1.718434161    0.000000000    0.000000000
                D/DY     0.000000000    1.379203115   -0.275620802
                D/DZ     0.000000000   -0.253684407    1.055084741
     H          D/DX     1.718434161   -0.000000000   -0.000000000
                D/DY     0.000000000    1.379203115    0.275620802
                D/DZ     0.000000000    0.253684407    1.055084741
     O          D/DX    -3.436757326    0.000000007   -0.000000000
                D/DY     0.000000000   -2.758666270    0.000000000
                D/DZ     0.000000000    0.000000003   -2.109784055

          --------------------------------------------------------
          NORMAL COORDINATE ANALYSIS IN THE HARMONIC APPROXIMATION
          --------------------------------------------------------

          ATOMIC WEIGHTS (AMU)

    1     H                 1.00782
    2     H                 1.00782
    3     O                15.99491

 MODES 1 TO 6 ARE TAKEN AS ROTATIONS AND TRANSLATIONS.

 ANALYZING SYMMETRY OF NORMAL MODES...

     FREQUENCIES IN CM**-1, IR INTENSITIES IN DEBYE**2/AMU-ANGSTROM**2,
     REDUCED MASSES IN AMU.

                          1           2           3           4           5
       FREQUENCY:        32.33        1.91        0.02        2.84       17.05  
        SYMMETRY:         A           A           A           A           A   
    REDUCED MASS:      1.01933     5.06891     6.00359     6.98561     1.00783
    IR INTENSITY:      2.17705     0.01614     0.00000     0.01682     0.00000

  1   H            X -0.00000003  0.26816369  0.00000011 -0.00000621  0.70435639
                   Y -0.40203338  0.00000434 -0.00000077  0.20122456  0.00000000
                   Z  0.57315830  0.00000127  0.23563162  0.05035050 -0.00000001
  2   H            X -0.00000003  0.26816369  0.00000009 -0.00000621 -0.70435632
                   Y -0.40203338  0.00000434  0.00000730  0.20122456  0.00000000
                   Z -0.57315827 -0.00000145  0.23563005 -0.05035810 -0.00000000
  3   O            X -0.00000010  0.23120921  0.00000009 -0.00000514 -0.00000000
                   Y  0.02744382  0.00000535  0.00000385  0.23895129 -0.00000000
                   Z  0.00000001 -0.00000009  0.23563344 -0.00000380 -0.00000000

 TRANS. SAYVETZ    X -0.00000173  4.23869458  0.00000162 -0.00009468 -0.00000000
                   Y -0.37139714  0.00009435  0.00006820  4.22760265 -0.00000000
                   Z  0.00000022 -0.00000162  4.24388501 -0.00006844 -0.00000007
               TOTAL  0.37139714  4.23869458  4.24388501  4.22760265  0.00000007

   ROT. SAYVETZ    X -2.46387957 -0.00000583 -0.00000336 -0.21645313  0.00000001
                   Y -0.00000015 -0.07053588 -0.00000001  0.00000204 -0.00000008
                   Z  0.00000001 -0.00000000  0.00000003  0.00000000  2.02047311
               TOTAL  2.46387957  0.07053588  0.00000336  0.21645313  2.02047311

                          6           7           8           9
       FREQUENCY:        18.46     1744.73     4120.33     4222.62  
        SYMMETRY:         A           A           A           A   
    REDUCED MASS:      1.16622     1.08318     1.04469     1.08365
    IR INTENSITY:      6.58248     2.27972     0.35844     2.18450

  1   H            X  0.65131104  0.00000000  0.00000000 -0.00000000
                   Y  0.00000012 -0.40861931 -0.57371433  0.54221372
                   Z -0.00000005  0.54065833 -0.38507733  0.40629042
  2   H            X  0.65131111  0.00000000 -0.00000000 -0.00000000
                   Y  0.00000012  0.40861931  0.57371433  0.54221372
                   Z  0.00000006  0.54065833 -0.38507733 -0.40629042
  3   O            X -0.09519555 -0.00000000 -0.00000000 -0.00000000
                   Y  0.00000007  0.00000000 -0.00000000 -0.06833013
                   Z  0.00000000 -0.06813293  0.04852498 -0.00000000

 TRANS. SAYVETZ    X -0.20982903  0.00000000 -0.00000000 -0.00000000
                   Y  0.00000143  0.00000000 -0.00000000 -0.00002127
                   Z  0.00000004 -0.00000205 -0.00002841 -0.00000000
               TOTAL  0.20982903  0.00000205  0.00002841  0.00002127

   ROT. SAYVETZ    X  0.00000023 -0.00000000  0.00000000 -0.00010028
                   Y -1.42487460 -0.00000000 -0.00000000 -0.00000000
                   Z -0.00000011  0.00000000  0.00000000  0.00000000
               TOTAL  1.42487460  0.00000000  0.00000000  0.00010028

 REFERENCE ON SAYVETZ CONDITIONS - A. SAYVETZ, J.CHEM.PHYS., 7, 383-389(1939).

 NOTE - THE MODES J,K ARE ORTHONORMALIZED ACCORDING TO
 SUM ON I   M(I) * (X(I,J)*X(I,K) + Y(I,J)*Y(I,K) + Z(I,J)*Z(I,K)) = DELTA(J,K)

  MODE FREQ(CM**-1)  SYMMETRY  RED. MASS  IR INTENS.
     1      32.334    A        1.019331    2.177048
     2       1.907    A        5.068906    0.016137
     3       0.025    A        6.003594    0.000000
     4       2.840    A        6.985607    0.016816
     5      17.052    A        1.007825    0.000000
     6      18.458    A        1.166216    6.582480
     7    1744.728    A        1.083184    2.279721
     8    4120.332    A        1.044692    0.358442
     9    4222.622    A        1.083653    2.184504

     -------------------------------
     THERMOCHEMISTRY AT T=  298.15 K
     -------------------------------

 USING IDEAL GAS, RIGID ROTOR, HARMONIC NORMAL MODE APPROXIMATIONS.
 P=  1.01325E+05 PASCAL.
 ALL FREQUENCIES ARE SCALED BY   1.00000
 THE MOMENTS OF INERTIA ARE (IN AMU*BOHR**2)
      2.03524     4.08231     6.11755
 THE ROTATIONAL SYMMETRY NUMBER IS  1.0
 THE ROTATIONAL CONSTANTS ARE (IN GHZ)
    885.93269   441.68315   294.74004
 THE HARMONIC ZERO POINT ENERGY IS (SCALED BY   1.000)
        0.022981 HARTREE/MOLECULE     5043.840467 CM**-1/MOLECULE 
       14.421078 KCAL/MOL               60.337790 KJ/MOL

               Q               LN Q
 ELEC.     1.00000E+00       0.000000
 TRANS.    3.00431E+06      14.915558
 ROT.      8.07033E+01       4.390780
 VIB.      1.00022E+00       0.000221
 TOT.      2.42511E+08      19.306559

              E         H         G         CV        CP        S
           KJ/MOL    KJ/MOL    KJ/MOL   J/MOL-K   J/MOL-K   J/MOL-K
 ELEC.      0.000     0.000     0.000     0.000     0.000     0.000
 TRANS.     3.718     6.197   -36.975    12.472    20.786   144.800
 ROT.       3.718     3.718   -10.884    12.472    12.472    48.978
 VIB.      60.342    60.342    60.337     0.130     0.130     0.017
 TOTAL     67.779    70.258    12.478    25.073    33.388   193.796
 VIB. THERMAL CORRECTION E(T)-E(0) = H(T)-H(0) =     4.604 J/MOL

              E         H         G         CV        CP        S
         KCAL/MOL  KCAL/MOL  KCAL/MOL CAL/MOL-K CAL/MOL-K CAL/MOL-K
 ELEC.      0.000     0.000     0.000     0.000     0.000     0.000
 TRANS.     0.889     1.481    -8.837     2.981     4.968    34.608
 ROT.       0.889     0.889    -2.601     2.981     2.981    11.706
 VIB.      14.422    14.422    14.421     0.031     0.031     0.004
 TOTAL     16.200    16.792     2.982     5.993     7.980    46.318
 VIB. THERMAL CORRECTION E(T)-E(0) = H(T)-H(0) =     1.100 CAL/MOL
 ......END OF NORMAL COORDINATE ANALYSIS......
 CPU     0: STEP CPU TIME=     0.00 TOTAL CPU TIME=       35.2 (    0.6 MIN)
 TOTAL WALL CLOCK TIME=       35.5 SECONDS, CPU UTILIZATION IS  98.93%
               997872  WORDS OF DYNAMIC MEMORY USED
 EXECUTION OF GAMESS TERMINATED NORMALLY Sun Mar  6 23:05:58 2016
 DDI: 263640 bytes (0.3 MB / 0 MWords) used by master data server.

 ----------------------------------------
 CPU timing information for all processes
 ========================================
 0: 32.967 + 2.207 = 35.174
 1: 32.807 + 2.188 = 34.995
 ----------------------------------------
 ddikick.x: exited gracefully.
----- accounting info -----
Files used on the master node Clevo were:
-rw-r--r-- 1 sagar sagar   163363 Mar  6 23:05 /tmp/H2O_RHF_augccpVTZ_hessian.dat
-rw-r--r-- 1 sagar sagar      229 Mar  6 23:05 /tmp/H2O_RHF_augccpVTZ_hessian.F05
-rw-r--r-- 1 sagar sagar 43383856 Mar  6 23:05 /tmp/H2O_RHF_augccpVTZ_hessian.F08
-rw-r--r-- 1 sagar sagar 43923904 Mar  6 23:05 /tmp/H2O_RHF_augccpVTZ_hessian.F08.001
-rw-r--r-- 1 sagar sagar  2748480 Mar  6 23:05 /tmp/H2O_RHF_augccpVTZ_hessian.F10
-rw-r--r-- 1 sagar sagar     5085 Mar  6 23:05 /tmp/H2O_RHF_augccpVTZ_hessian.rst
Sun Mar  6 23:06:01 WET 2016
0.127u 0.084s 0:38.77 0.5%	0+0k 0+24io 0pf+0w
