----- GAMESS execution script 'rungms' -----
This job is running on host Clevo
under operating system Linux at Tue Mar 8 19:09:36 WET 2016
Available scratch disk space (Kbyte units) at beginning of the job is
Filesystem                                             1K-blocks     Used Available Use% Mounted on
/dev/disk/by-uuid/c2905ecd-da6a-4deb-abcc-9980c215dfc9  34319120 18843404  13709316  58% /
GAMESS temporary binary files will be written to /tmp
GAMESS supplementary output files will be written to .
Copying input file H2O_ion_ROHF_MP2_augccpVTZ_geometry.inp to your run's scratch directory...

 Distributed Data Interface kickoff program.
 Initiating 2 compute processes on 1 nodes to run the following command:
 /home/sagar/gamess/gamess.01.x H2O_ion_ROHF_MP2_augccpVTZ_geometry 

          ******************************************************
          *         GAMESS VERSION =  5 DEC 2014 (R1)          *
          *             FROM IOWA STATE UNIVERSITY             *
          * M.W.SCHMIDT, K.K.BALDRIDGE, J.A.BOATZ, S.T.ELBERT, *
          *   M.S.GORDON, J.H.JENSEN, S.KOSEKI, N.MATSUNAGA,   *
          *          K.A.NGUYEN, S.J.SU, T.L.WINDUS,           *
          *       TOGETHER WITH M.DUPUIS, J.A.MONTGOMERY       *
          *         J.COMPUT.CHEM.  14, 1347-1363(1993)        *
          **************** 64 BIT LINUX VERSION ****************

  SINCE 1993, STUDENTS AND POSTDOCS WORKING AT IOWA STATE UNIVERSITY
  AND ALSO IN THEIR VARIOUS JOBS AFTER LEAVING ISU HAVE MADE IMPORTANT
  CONTRIBUTIONS TO THE CODE:
     IVANA ADAMOVIC, CHRISTINE AIKENS, YURI ALEXEEV, POOJA ARORA,
     ANDREY ASADCHEV, ROB BELL, PRADIPTA BANDYOPADHYAY, JONATHAN BENTZ,
     BRETT BODE, KURT BRORSEN, CALEB CARLIN, GALINA CHABAN, WEI CHEN,
     CHEOL HO CHOI, PAUL DAY, ALBERT DEFUSCO, NUWAN DESILVA, TIM DUDLEY,
     DMITRI FEDOROV, GRAHAM FLETCHER, MARK FREITAG, KURT GLAESEMANN,
     DAN KEMP, GRANT MERRILL, NORIYUKI MINEZAWA, JONATHAN MULLIN,
     TAKESHI NAGATA, SEAN NEDD, HEATHER NETZLOFF, BOSILJKA NJEGIC, RYAN OLSON,
     MIKE PAK, SPENCER PRUITT, LUKE ROSKOP, JIM SHOEMAKER, LYUDMILA SLIPCHENKO,
     TONY SMITH, SAROM SOK, JIE SONG, TETSUYA TAKETSUGU, SIMON WEBB,
     PENG XU, SOOHAENG YOO, FEDERICO ZAHARIEV

  ADDITIONAL CODE HAS BEEN PROVIDED BY COLLABORATORS IN OTHER GROUPS:
     IOWA STATE UNIVERSITY:
          JOE IVANIC, AARON WEST, LAIMUTIS BYTAUTAS, KLAUS RUEDENBERG
     UNIVERSITY OF TOKYO: KIMIHIKO HIRAO, TAKAHITO NAKAJIMA,
          TAKAO TSUNEDA, MUNEAKI KAMIYA, SUSUMU YANAGISAWA,
          KIYOSHI YAGI, MAHITO CHIBA, SEIKEN TOKURA, NAOAKI KAWAKAMI
     UNIVERSITY OF AARHUS: FRANK JENSEN
     UNIVERSITY OF IOWA: VISVALDAS KAIRYS, HUI LI
     NATIONAL INST. OF STANDARDS AND TECHNOLOGY: WALT STEVENS, DAVID GARMER
     UNIVERSITY OF PISA: BENEDETTA MENNUCCI, JACOPO TOMASI
     UNIVERSITY OF MEMPHIS: HENRY KURTZ, PRAKASHAN KORAMBATH
     UNIVERSITY OF ALBERTA: TOBY ZENG, MARIUSZ KLOBUKOWSKI
     UNIVERSITY OF NEW ENGLAND: MARK SPACKMAN
     MIE UNIVERSITY: HIROAKI UMEDA
     NAT. INST. OF ADVANCED INDUSTRIAL SCIENCE AND TECHNOLOGY: KAZUO KITAURA
     MICHIGAN STATE UNIVERSITY:
          KAROL KOWALSKI, MARTA WLOCH, JEFFREY GOUR, JESSE LUTZ,
          WEI LI, PIOTR PIECUCH
     UNIVERSITY OF SILESIA: MONIKA MUSIAL, STANISLAW KUCHARSKI
     FACULTES UNIVERSITAIRES NOTRE-DAME DE LA PAIX:
          OLIVIER QUINET, BENOIT CHAMPAGNE
     UNIVERSITY OF CALIFORNIA - SANTA BARBARA: BERNARD KIRTMAN
     INSTITUTE FOR MOLECULAR SCIENCE:
          KAZUYA ISHIMURA, MICHIO KATOUDA, AND SHIGERU NAGASE
     UNIVERSITY OF NOTRE DAME: ANNA POMOGAEVA, DAN CHIPMAN
     KYUSHU UNIVERSITY:
          HARUYUKI NAKANO,
          FENG LONG GU, JACEK KORCHOWIEC, MARCIN MAKOWSKI, AND YURIKO AOKI,
          HIROTOSHI MORI AND EISAKU MIYOSHI
     PENNSYLVANIA STATE UNIVERSITY:
          TZVETELIN IORDANOV, CHET SWALINA, JONATHAN SKONE,
          SHARON HAMMES-SCHIFFER
     WASEDA UNIVERSITY:
          MASATO KOBAYASHI, TOMOKO AKAMA, TSUGUKI TOUMA,
          TAKESHI YOSHIKAWA, YASUHIRO IKABATA, HIROMI NAKAI
     NANJING UNIVERSITY: SHUHUA LI
     UNIVERSITY OF NEBRASKA:
          PEIFENG SU, DEJUN SI, NANDUN THELLAMUREGE, YALI WANG, HUI LI
     UNIVERSITY OF ZURICH: ROBERTO PEVERATI, KIM BALDRIDGE
     N. COPERNICUS UNIVERSITY AND JACKSON STATE UNIVERSITY:
          MARIA BARYSZ
     UNIVERSITY OF COPENHAGEN: CASPER STEINMANN
     TOKYO INSTITUTE OF TECHNOLOGY: HIROYA NAKATA
     NAGOYA UNIVERSITY: YOSHIO NISHIMOTO, STEPHAN IRLE


 PARALLEL VERSION RUNNING ON        2 PROCESSORS IN        1 NODES.

 EXECUTION OF GAMESS BEGUN Tue Mar  8 19:09:36 2016

            ECHO OF THE FIRST FEW INPUT CARDS -
 INPUT CARD> $CONTRL SCFTYP=ROHF MPLEVL=2 RUNTYP=OPTIMIZE ISPHER=1 ICHARG=1 MULT=2 $END     
 INPUT CARD> $STATPT OPTTOL=1E-12 NSTEP=1000 $END                                           
 INPUT CARD> $BASIS GBASIS=ACCT $END                                                        
 INPUT CARD> $DATA                                                                          
 INPUT CARD>H2O                                                                             
 INPUT CARD>C1                                                                              
 INPUT CARD> H 1 0.0 -1.0 0.0                                                               
 INPUT CARD> H 1 0.0 1.0 0.0                                                                
 INPUT CARD> O 8 0.0 0.0 0.5                                                                
 INPUT CARD> $END                                                                           
    1000000 WORDS OF MEMORY AVAILABLE

     BASIS OPTIONS
     -------------
     GBASIS=ACCT         IGAUSS=       0      POLAR=NONE    
     NDFUNC=       0     NFFUNC=       0     DIFFSP=       F
     NPFUNC=       0      DIFFS=       F     BASNAM=        


     RUN TITLE
     ---------
 H2O                                                                             

 THE POINT GROUP OF THE MOLECULE IS C1      
 THE ORDER OF THE PRINCIPAL AXIS IS     0

 ATOM      ATOMIC                      COORDINATES (BOHR)
           CHARGE         X                   Y                   Z
 H           1.0     0.0000000000       -1.8897259877        0.0000000000
 H           1.0     0.0000000000        1.8897259877        0.0000000000
 O           8.0     0.0000000000        0.0000000000        0.9448629939

          INTERNUCLEAR DISTANCES (ANGS.)
          ------------------------------

                1 H          2 H          3 O     

   1 H       0.0000000    2.0000000 *  1.1180340 *
   2 H       2.0000000 *  0.0000000    1.1180340 *
   3 O       1.1180340 *  1.1180340 *  0.0000000  

  * ... LESS THAN  3.000


     ATOMIC BASIS SET
     ----------------
 THE CONTRACTED PRIMITIVE FUNCTIONS HAVE BEEN UNNORMALIZED
 THE CONTRACTED BASIS FUNCTIONS ARE NOW NORMALIZED TO UNITY

  SHELL TYPE  PRIMITIVE        EXPONENT          CONTRACTION COEFFICIENT(S)

 H         

      1   S       1            33.8700000    0.025494863235
      1   S       2             5.0950000    0.190362765893
      1   S       3             1.1590000    0.852162022245

      2   S       4             0.3258000    1.000000000000

      3   S       5             0.1027000    1.000000000000

      4   P       6             1.4070000    1.000000000000

      5   P       7             0.3880000    1.000000000000

      6   D       8             1.0570000    1.000000000000

      7   S       9             0.0252600    1.000000000000

      8   P      10             0.1020000    1.000000000000

      9   D      11             0.2470000    1.000000000000

 H         

     10   S      12            33.8700000    0.025494863235
     10   S      13             5.0950000    0.190362765893
     10   S      14             1.1590000    0.852162022245

     11   S      15             0.3258000    1.000000000000

     12   S      16             0.1027000    1.000000000000

     13   P      17             1.4070000    1.000000000000

     14   P      18             0.3880000    1.000000000000

     15   D      19             1.0570000    1.000000000000

     16   S      20             0.0252600    1.000000000000

     17   P      21             0.1020000    1.000000000000

     18   D      22             0.2470000    1.000000000000

 O         

     19   S      23         15330.0000000    0.000520198307
     19   S      24          2299.0000000    0.004023344781
     19   S      25           522.4000000    0.020729083329
     19   S      26           147.3000000    0.081082327080
     19   S      27            47.5500000    0.236226352118
     19   S      28            16.7600000    0.443518209420
     19   S      29             6.2070000    0.358670588689
     19   S      30             0.6882000   -0.008349797237

     20   S      31         15330.0000000   -0.000197236012
     20   S      32          2299.0000000   -0.001535010700
     20   S      33           522.4000000   -0.007951183914
     20   S      34           147.3000000   -0.032113452892
     20   S      35            47.5500000   -0.100269643049
     20   S      36            16.7600000   -0.234047111838
     20   S      37             6.2070000   -0.301410927756
     20   S      38             0.6882000    1.034919649508

     21   S      39             1.7520000    1.000000000000

     22   S      40             0.2384000    1.000000000000

     23   P      41            34.4600000    0.041163489568
     23   P      42             7.7490000    0.257762835858
     23   P      43             2.2800000    0.802419274427

     24   P      44             0.7156000    1.000000000000

     25   P      45             0.2140000    1.000000000000

     26   D      46             2.3140000    1.000000000000

     27   D      47             0.6450000    1.000000000000

     28   F      48             1.4280000    1.000000000000

     29   S      49             0.0737600    1.000000000000

     30   P      50             0.0597400    1.000000000000

     31   D      51             0.2140000    1.000000000000

     32   F      52             0.5000000    1.000000000000

 TOTAL NUMBER OF BASIS SET SHELLS             =   32
 NUMBER OF CARTESIAN GAUSSIAN BASIS FUNCTIONS =  105
 NOTE: THIS RUN WILL RESTRICT THE MO VARIATION SPACE TO SPHERICAL HARMONICS.
 THE NUMBER OF ORBITALS KEPT IN THE VARIATIONAL SPACE WILL BE PRINTED LATER.
 NUMBER OF ELECTRONS                          =    9
 CHARGE OF MOLECULE                           =    1
 SPIN MULTIPLICITY                            =    2
 NUMBER OF OCCUPIED ORBITALS (ALPHA)          =    5
 NUMBER OF OCCUPIED ORBITALS (BETA )          =    4
 TOTAL NUMBER OF ATOMS                        =    3
 THE NUCLEAR REPULSION ENERGY IS        7.8375569539

     $CONTRL OPTIONS
     ---------------
 SCFTYP=ROHF         RUNTYP=OPTIMIZE     EXETYP=RUN     
 MPLEVL=       2     CITYP =NONE         CCTYP =NONE         VBTYP =NONE    
 DFTTYP=NONE         TDDFT =NONE    
 MULT  =       2     ICHARG=       1     NZVAR =       0     COORD =UNIQUE  
 PP    =NONE         RELWFN=NONE         LOCAL =NONE         NUMGRD=       F
 ISPHER=       1     NOSYM =       0     MAXIT =      30     UNITS =ANGS    
 PLTORB=       F     MOLPLT=       F     AIMPAC=       F     FRIEND=        
 NPRINT=       7     IREST =       0     GEOM  =INPUT   
 NORMF =       0     NORMP =       0     ITOL  =      20     ICUT  =       9
 INTTYP=BEST         GRDTYP=BEST         QMTTOL= 1.0E-06

     $SYSTEM OPTIONS
     ---------------
  REPLICATED MEMORY=     1000000 WORDS (ON EVERY NODE).
 DISTRIBUTED MEMDDI=           0 MILLION WORDS IN AGGREGATE,
 MEMDDI DISTRIBUTED OVER   2 PROCESSORS IS           0 WORDS/PROCESSOR.
 TOTAL MEMORY REQUESTED ON EACH PROCESSOR=     1000000 WORDS.
 TIMLIM=      525600.00 MINUTES, OR     365.0 DAYS.
 PARALL= T  BALTYP=  DLB     KDIAG=    0  COREFL= F
 MXSEQ2=     300 MXSEQ3=     150  mem10=         0

          ----------------
          PROPERTIES INPUT
          ----------------

     MOMENTS            FIELD           POTENTIAL          DENSITY
 IEMOM =       1   IEFLD =       0   IEPOT =       0   IEDEN =       0
 WHERE =COMASS     WHERE =NUCLEI     WHERE =NUCLEI     WHERE =NUCLEI  
 OUTPUT=BOTH       OUTPUT=BOTH       OUTPUT=BOTH       OUTPUT=BOTH    
 IEMINT=       0   IEFINT=       0                     IEDINT=       0
                                                       MORB  =       0
          EXTRAPOLATION IN EFFECT
          SOSCF IN EFFECT
 ORBITAL PRINTING OPTION: NPREO=     1   105     2     1

     -------------------------------
     INTEGRAL TRANSFORMATION OPTIONS
     -------------------------------
     NWORD  =            0
     CUTOFF = 1.0E-09     MPTRAN =       0
     DIRTRF =       F     AOINTS =DUP     

          ----------------------
          INTEGRAL INPUT OPTIONS
          ----------------------
 NOPK  =       1 NORDER=       0 SCHWRZ=       F

          -----------------------
          MP2 CONTROL INFORMATION
          -----------------------
          NACORE =        1  NBCORE =        1
          LMOMP2 =        F  AOINTS = DUP     
          METHOD =        2  NWORD  =               0
          MP2PRP =        F  OSPT   = ZAPT    
          CUTOFF = 1.00E-09  CPHFBS = BASISAO 
          CODE   = DDI     

          NUMBER OF CORE -A-  ORBITALS =     1
          NUMBER OF CORE -B-  ORBITALS =     1
          NUMBER OF OCC. -A-  ORBITALS =     5
          NUMBER OF OCC. -B-  ORBITALS =     4
          NUMBER OF MOLECULAR ORBITALS =   105
          NUMBER OF   BASIS  FUNCTIONS =   105


     ------------------------------------------
     THE POINT GROUP IS C1 , NAXIS= 0, ORDER= 1
     ------------------------------------------

 -- VARIATIONAL SPACE WILL BE RESTRICTED TO PURE SPHERICAL HARMONICS ONLY --
 AFTER EXCLUDING CONTAMINANT COMBINATIONS FROM THE CARTESIAN GAUSSIAN BASIS
 SET, THE NUMBER OF SPHERICAL HARMONICS KEPT IN THE VARIATION SPACE IS   92

     DIMENSIONS OF THE SYMMETRY SUBSPACES ARE
 A   =   92

 ..... DONE SETTING UP THE RUN .....
 CPU     0: STEP CPU TIME=     0.02 TOTAL CPU TIME=        0.0 (    0.0 MIN)
 TOTAL WALL CLOCK TIME=        0.0 SECONDS, CPU UTILIZATION IS  66.67%


          -----------------------------
          STATIONARY POINT LOCATION RUN
          -----------------------------

 OBTAINING INITIAL HESSIAN, HESS=GUESS   
 CARTESIAN COORDINATE OPTIMIZATION USING BADGER'S RULE FORCE CONSTANT GUESS

          PARAMETERS CONTROLLING GEOMETRY SEARCH ARE
          METHOD =QA                  UPHESS =BFGS    
          NNEG   =         0          NFRZ   =         0
          NSTEP  =      1000          IFOLOW =         1
          HESS   =GUESS               RESTAR =         F
          IHREP  =         0          HSSEND =         F
          NPRT   =         0          NPUN   =         0
          OPTTOL = 1.000E-12          RMIN   = 1.500E-03
          RMAX   = 1.000E-01          RLIM   = 7.000E-02
          DXMAX  = 3.000E-01          PURIFY =         F
          MOVIE  =         F          TRUPD  =         T
          TRMAX  = 5.000E-01          TRMIN  = 5.000E-02
          ITBMAT =         5          STPT   =         F
          STSTEP = 1.000E-02          PROJCT=          T

 BEGINNING GEOMETRY SEARCH POINT NSERCH=   0 ...

 COORDINATES OF ALL ATOMS ARE (ANGS)
   ATOM   CHARGE       X              Y              Z
 ------------------------------------------------------------
 H           1.0   0.0000000000  -1.0000000000   0.0000000000
 H           1.0   0.0000000000   1.0000000000   0.0000000000
 O           8.0   0.0000000000   0.0000000000   0.5000000000

          ********************
          1 ELECTRON INTEGRALS
          ********************
 ...... END OF ONE-ELECTRON INTEGRALS ......
 CPU     0: STEP CPU TIME=     0.01 TOTAL CPU TIME=        0.0 (    0.0 MIN)
 TOTAL WALL CLOCK TIME=        0.0 SECONDS, CPU UTILIZATION IS 100.00%

          -------------
          GUESS OPTIONS
          -------------
          GUESS =HUCKEL            NORB  =       0          NORDER=       0
          MIX   =       F          PRTMO =       F          PUNMO =       F
          TOLZ  = 1.0E-08          TOLE  = 1.0E-05
          SYMDEN=       F          PURIFY=       F

 INITIAL GUESS ORBITALS GENERATED BY HUCKEL   ROUTINE.
 HUCKEL GUESS REQUIRES     81459 WORDS.

 STATISTICS FOR GENERATION OF SYMMETRY ORBITAL -Q- MATRIX
 NUMBER OF CARTESIAN ATOMIC ORBITALS=        105
 NUMBER OF SPHERICAL CONTAMINANTS DROPPED=    13
 NUMBER OF LINEARLY DEPENDENT MOS DROPPED=     0
 TOTAL NUMBER OF MOS IN VARIATION SPACE=      92

 SYMMETRIES FOR INITIAL GUESS ORBITALS FOLLOW.  ALPHA SET(S).
     5 ORBITALS ARE OCCUPIED (    1 CORE ORBITALS).
     2=A        3=A        4=A        5=A        6=A        7=A        8=A   
     9=A       10=A       11=A       12=A       13=A       14=A       15=A   

 SYMMETRIES FOR INITIAL GUESS ORBITALS FOLLOW.   BETA SET(S).
     4 ORBITALS ARE OCCUPIED (    1 CORE ORBITALS).
     2=A        3=A        4=A        5=A        6=A        7=A        8=A   
     9=A       10=A       11=A       12=A       13=A       14=A   
 ...... END OF INITIAL ORBITAL SELECTION ......
 CPU     0: STEP CPU TIME=     0.01 TOTAL CPU TIME=        0.0 (    0.0 MIN)
 TOTAL WALL CLOCK TIME=        0.1 SECONDS, CPU UTILIZATION IS  80.00%

                    ----------------------
                    AO INTEGRAL TECHNOLOGY
                    ----------------------
     S,P,L SHELL ROTATED AXIS INTEGRALS, REPROGRAMMED BY
        KAZUYA ISHIMURA (IMS) AND JOSE SIERRA (SYNSTAR).
     S,P,D,L SHELL ROTATED AXIS INTEGRALS PROGRAMMED BY
        KAZUYA ISHIMURA (INSTITUTE FOR MOLECULAR SCIENCE).
     S,P,D,F,G SHELL TO TOTAL QUARTET ANGULAR MOMENTUM SUM 5,
        ERIC PROGRAM BY GRAHAM FLETCHER (ELORET AND NASA ADVANCED
        SUPERCOMPUTING DIVISION, AMES RESEARCH CENTER).
     S,P,D,F,G,L SHELL GENERAL RYS QUADRATURE PROGRAMMED BY
        MICHEL DUPUIS (PACIFIC NORTHWEST NATIONAL LABORATORY).

          --------------------
          2 ELECTRON INTEGRALS
          --------------------

 THE -PK- OPTION IS OFF, THE INTEGRALS ARE NOT IN SUPERMATRIX FORM.
 STORING   15000 INTEGRALS/RECORD ON DISK, USING 12 BYTES/INTEGRAL.
 TWO ELECTRON INTEGRAL EVALUATION REQUIRES   99628 WORDS OF MEMORY.
 II,JST,KST,LST =  1  1  1  1 NREC =         1 INTLOC =    1
 II,JST,KST,LST =  2  1  1  1 NREC =         1 INTLOC =    1
 II,JST,KST,LST =  3  1  1  1 NREC =         1 INTLOC =    5
 II,JST,KST,LST =  4  1  1  1 NREC =         1 INTLOC =    5
 II,JST,KST,LST =  5  1  1  1 NREC =         1 INTLOC =    5
 II,JST,KST,LST =  6  1  1  1 NREC =         1 INTLOC =   65
 II,JST,KST,LST =  7  1  1  1 NREC =         1 INTLOC =  320
 II,JST,KST,LST =  8  1  1  1 NREC =         1 INTLOC =  720
 II,JST,KST,LST =  9  1  1  1 NREC =         1 INTLOC = 1320
 II,JST,KST,LST = 10  1  1  1 NREC =         1 INTLOC = 3183
 II,JST,KST,LST = 11  1  1  1 NREC =         1 INTLOC = 5229
 II,JST,KST,LST = 12  1  1  1 NREC =         1 INTLOC = 6170
 II,JST,KST,LST = 13  1  1  1 NREC =         1 INTLOC = 8484
 II,JST,KST,LST = 14  1  1  1 NREC =         1 INTLOC =13789
 II,JST,KST,LST = 15  1  1  1 NREC =         2 INTLOC = 5826
 II,JST,KST,LST = 16  1  1  1 NREC =         3 INTLOC =13990
 II,JST,KST,LST = 17  1  1  1 NREC =         4 INTLOC =  948
 II,JST,KST,LST = 18  1  1  1 NREC =         5 INTLOC = 1132
 II,JST,KST,LST = 19  1  1  1 NREC =         7 INTLOC = 5919
 II,JST,KST,LST = 20  1  1  1 NREC =         9 INTLOC = 1414
 II,JST,KST,LST = 21  1  1  1 NREC =        10 INTLOC = 2531
 II,JST,KST,LST = 22  1  1  1 NREC =        12 INTLOC = 1202
 II,JST,KST,LST = 23  1  1  1 NREC =        13 INTLOC = 2837
 II,JST,KST,LST = 24  1  1  1 NREC =        16 INTLOC =11483
 II,JST,KST,LST = 25  1  1  1 NREC =        22 INTLOC = 2777
 II,JST,KST,LST = 26  1  1  1 NREC =        28 INTLOC =14927
 II,JST,KST,LST = 27  1  1  1 NREC =        46 INTLOC =  282
 II,JST,KST,LST = 28  1  1  1 NREC =        63 INTLOC =13200
 II,JST,KST,LST = 29  1  1  1 NREC =       107 INTLOC =14320
 II,JST,KST,LST = 30  1  1  1 NREC =       109 INTLOC =11657
 II,JST,KST,LST = 31  1  1  1 NREC =       126 INTLOC = 9291
 II,JST,KST,LST = 32  1  1  1 NREC =       161 INTLOC =14262
 TOTAL NUMBER OF NONZERO TWO-ELECTRON INTEGRALS =             7265215
        485 INTEGRAL RECORDS WERE STORED ON DISK FILE  8.
  ...... END OF TWO-ELECTRON INTEGRALS .....
 CPU     0: STEP CPU TIME=     0.44 TOTAL CPU TIME=        0.5 (    0.0 MIN)
 TOTAL WALL CLOCK TIME=        0.5 SECONDS, CPU UTILIZATION IS  96.00%

          ---------------------------
                 ROHF SCF CALCULATION
          ---------------------------

     NUCLEAR ENERGY =         7.8375569539
     MAXIT = 30     NPUNCH=  2     MULT=  2
     EXTRAP=T  DAMP=F  SHIFT=F  RSTRCT=F  DIIS=F  SOSCF=T
     DENSITY MATRIX CONV=  1.00E-06
     ROHF CANONICALIZATION PARAMETERS
             C-C     O-O     V-V
     ALPHA -0.5000  0.5000  1.5000
     BETA   1.5000  0.5000 -0.5000
     SOSCF WILL OPTIMIZE     439 ORBITAL ROTATION ANGLES. SOGTOL= 2.500E-01
     MEMORY REQUIRED FOR UHF/ROHF ITERS=    133343 WORDS.

 ITER EX      TOTAL ENERGY        E CHANGE  DENSITY CHANGE    ORB. GRAD 
   1  0      -75.2635246829   -75.2635246829   0.417452140   0.000000000
          ---------------START SECOND ORDER SCF---------------
   2  1      -75.5708016961    -0.3072770132   0.108457098   0.109964181
   3  2      -75.6078471115    -0.0370454155   0.049390415   0.064180482
   4  3      -75.6235016255    -0.0156545140   0.007189990   0.005211218
   5  4      -75.6238291076    -0.0003274821   0.003949473   0.002345735
   6  5      -75.6238940078    -0.0000649002   0.000461214   0.000337203
   7  6      -75.6238954078    -0.0000013999   0.000233249   0.000111562
   8  7      -75.6238955762    -0.0000001685   0.000027009   0.000023946
   9  8      -75.6238955814    -0.0000000051   0.000012677   0.000009038
  10  9      -75.6238955822    -0.0000000008   0.000000686   0.000000628
  11 10      -75.6238955822    -0.0000000000   0.000000195   0.000000161

          -----------------
          DENSITY CONVERGED
          -----------------
     TIME TO FORM FOCK OPERATORS=       1.1 SECONDS (       0.1 SEC/ITER)
     TIME TO SOLVE SCF EQUATIONS=       0.0 SECONDS (       0.0 SEC/ITER)

 THE CONVERGED ORBITALS WILL UNDERGO GUEST/SAUNDERS
 CANONICALIZATION FOR ZAPT PERTURBATION THEORY.

 FINAL ROHF ENERGY IS      -75.6238955822 AFTER  11 ITERATIONS

          --------------------
          SPIN SZ   =    0.500
          S-SQUARED =    0.750
          --------------------

          ------------
          EIGENVECTORS
          ------------

                      1          2          3          4          5
                  -21.0731    -1.7199    -1.1115    -0.9789    -0.6492
                     A          A          A          A          A   
    1  H  1  S    0.000131   0.059477  -0.119513  -0.060805  -0.000000
    2  H  1  S    0.002210   0.045293  -0.176177  -0.136707  -0.000000
    3  H  1  S    0.000161  -0.025591   0.003491  -0.027995  -0.000000
    4  H  1  X   -0.000000  -0.000000  -0.000000  -0.000000   0.006738
    5  H  1  Y    0.000311   0.008710  -0.009295  -0.007240  -0.000000
    6  H  1  Z    0.000179   0.004000  -0.007013   0.003141  -0.000000
    7  H  1  X   -0.000000  -0.000000  -0.000000  -0.000000   0.017224
    8  H  1  Y    0.001523   0.011631  -0.028308  -0.039006  -0.000000
    9  H  1  Z    0.000647   0.003415  -0.021754  -0.000446  -0.000000
   10  H  1 XX   -0.000165  -0.001244   0.001456   0.001148  -0.000000
   11  H  1 YY    0.000239   0.001787  -0.001002  -0.004424  -0.000000
   12  H  1 ZZ   -0.000074  -0.000542  -0.000454   0.003276  -0.000000
   13  H  1 XY   -0.000000  -0.000000  -0.000000  -0.000000   0.003906
   14  H  1 XZ   -0.000000  -0.000000  -0.000000  -0.000000   0.001915
   15  H  1 YZ    0.000231   0.001230  -0.003529   0.000289  -0.000000
   16  H  1  S    0.000043  -0.001271   0.005055   0.000694  -0.000000
   17  H  1  X   -0.000000  -0.000000  -0.000000  -0.000000  -0.004322
   18  H  1  Y    0.000203  -0.005962   0.004863  -0.006555  -0.000000
   19  H  1  Z    0.000024  -0.003806   0.003444  -0.003520  -0.000000
   20  H  1 XX   -0.000259  -0.001714   0.002045   0.004001  -0.000000
   21  H  1 YY    0.000409   0.003073  -0.001719  -0.008274  -0.000000
   22  H  1 ZZ   -0.000150  -0.001358  -0.000326   0.004273  -0.000000
   23  H  1 XY   -0.000000  -0.000000  -0.000000  -0.000000   0.003543
   24  H  1 XZ   -0.000000  -0.000000  -0.000000  -0.000000   0.002422
   25  H  1 YZ    0.000344   0.002210  -0.006131  -0.000798  -0.000000
   26  H  2  S    0.000131   0.059477   0.119513  -0.060805  -0.000000
   27  H  2  S    0.002210   0.045293   0.176177  -0.136707  -0.000000
   28  H  2  S    0.000161  -0.025591  -0.003491  -0.027995  -0.000000
   29  H  2  X   -0.000000  -0.000000  -0.000000  -0.000000   0.006738
   30  H  2  Y   -0.000311  -0.008710  -0.009295   0.007240  -0.000000
   31  H  2  Z    0.000179   0.004000   0.007013   0.003141  -0.000000
   32  H  2  X   -0.000000  -0.000000  -0.000000  -0.000000   0.017224
   33  H  2  Y   -0.001523  -0.011631  -0.028308   0.039006  -0.000000
   34  H  2  Z    0.000647   0.003415   0.021754  -0.000446  -0.000000
   35  H  2 XX   -0.000165  -0.001244  -0.001456   0.001148  -0.000000
   36  H  2 YY    0.000239   0.001787   0.001002  -0.004424  -0.000000
   37  H  2 ZZ   -0.000074  -0.000542   0.000454   0.003276  -0.000000
   38  H  2 XY   -0.000000  -0.000000  -0.000000  -0.000000  -0.003906
   39  H  2 XZ   -0.000000  -0.000000  -0.000000  -0.000000   0.001915
   40  H  2 YZ   -0.000231  -0.001230  -0.003529  -0.000289  -0.000000
   41  H  2  S    0.000043  -0.001271  -0.005055   0.000694  -0.000000
   42  H  2  X   -0.000000  -0.000000  -0.000000  -0.000000  -0.004322
   43  H  2  Y   -0.000203   0.005962   0.004863   0.006555  -0.000000
   44  H  2  Z    0.000024  -0.003806  -0.003444  -0.003520  -0.000000
   45  H  2 XX   -0.000259  -0.001714  -0.002045   0.004001  -0.000000
   46  H  2 YY    0.000409   0.003073   0.001719  -0.008274  -0.000000
   47  H  2 ZZ   -0.000150  -0.001358   0.000326   0.004273  -0.000000
   48  H  2 XY   -0.000000  -0.000000  -0.000000  -0.000000  -0.003543
   49  H  2 XZ   -0.000000  -0.000000  -0.000000  -0.000000   0.002422
   50  H  2 YZ   -0.000344  -0.002210  -0.006131   0.000798  -0.000000
   51  O  3  S    0.975551  -0.001492  -0.000000   0.003759  -0.000000
   52  O  3  S   -0.001609   0.549680  -0.000000   0.124806  -0.000000
   53  O  3  S    0.043415   0.147612   0.000000   0.038704  -0.000000
   54  O  3  S   -0.001391   0.328529   0.000000   0.218265  -0.000000
   55  O  3  X   -0.000000  -0.000000  -0.000000  -0.000000   0.397348
   56  O  3  Y   -0.000000  -0.000000   0.300283  -0.000000  -0.000000
   57  O  3  Z   -0.001626  -0.024738   0.000000   0.356603  -0.000000
   58  O  3  X   -0.000000  -0.000000  -0.000000  -0.000000   0.513779
   59  O  3  Y   -0.000000   0.000000   0.385502  -0.000000  -0.000000
   60  O  3  Z    0.001709  -0.040865   0.000000   0.450258  -0.000000
   61  O  3  X   -0.000000  -0.000000  -0.000000  -0.000000   0.270893
   62  O  3  Y   -0.000000  -0.000000   0.187027  -0.000000  -0.000000
   63  O  3  Z    0.000654  -0.025161  -0.000000   0.244368  -0.000000
   64  O  3 XX   -0.000187  -0.002900  -0.000000   0.005171  -0.000000
   65  O  3 YY    0.000116   0.003125  -0.000000  -0.001542  -0.000000
   66  O  3 ZZ    0.000071  -0.000225  -0.000000  -0.003630  -0.000000
   67  O  3 XY   -0.000000  -0.000000  -0.000000  -0.000000  -0.000000
   68  O  3 XZ   -0.000000  -0.000000  -0.000000  -0.000000  -0.004661
   69  O  3 YZ   -0.000000  -0.000000  -0.009593  -0.000000  -0.000000
   70  O  3 XX    0.000602  -0.011341  -0.000000   0.006843  -0.000000
   71  O  3 YY   -0.001006   0.013868  -0.000000   0.007468  -0.000000
   72  O  3 ZZ    0.000404  -0.002527   0.000000  -0.014311  -0.000000
   73  O  3 XY   -0.000000  -0.000000  -0.000000  -0.000000  -0.000000
   74  O  3 XZ   -0.000000  -0.000000  -0.000000  -0.000000  -0.013329
   75  O  3 YZ   -0.000000  -0.000000  -0.026436   0.000000  -0.000000
   76  O  3 XXX  -0.000000  -0.000000  -0.000000  -0.000000   0.003972
   77  O  3 YYY  -0.000000  -0.000000   0.003028  -0.000000  -0.000000
   78  O  3 ZZZ  -0.000090   0.001320  -0.000000  -0.002878  -0.000000
   79  O  3 XXY  -0.000000  -0.000000  -0.002016  -0.000000  -0.000000
   80  O  3 XXZ  -0.000051   0.000756  -0.000000   0.000446  -0.000000
   81  O  3 YYX  -0.000000  -0.000000  -0.000000  -0.000000  -0.000609
   82  O  3 YYZ   0.000171  -0.002527  -0.000000   0.003415  -0.000000
   83  O  3 ZZX  -0.000000  -0.000000  -0.000000  -0.000000  -0.004720
   84  O  3 ZZY  -0.000000  -0.000000  -0.002047  -0.000000  -0.000000
   85  O  3 XYZ  -0.000000  -0.000000  -0.000000  -0.000000  -0.000000
   86  O  3  S   -0.000239   0.042245   0.000000   0.010223  -0.000000
   87  O  3  X   -0.000000  -0.000000  -0.000000  -0.000000   0.003517
   88  O  3  Y    0.000000  -0.000000   0.014475  -0.000000  -0.000000
   89  O  3  Z   -0.000049  -0.004618  -0.000000   0.009715  -0.000000
   90  O  3 XX    0.000012  -0.008901  -0.000000  -0.003346  -0.000000
   91  O  3 YY    0.000099   0.010764  -0.000000   0.015905  -0.000000
   92  O  3 ZZ   -0.000111  -0.001863   0.000000  -0.012559  -0.000000
   93  O  3 XY   -0.000000  -0.000000  -0.000000  -0.000000  -0.000000
   94  O  3 XZ   -0.000000  -0.000000  -0.000000  -0.000000  -0.009917
   95  O  3 YZ    0.000000   0.000000  -0.008527   0.000000  -0.000000
   96  O  3 XXX  -0.000000  -0.000000  -0.000000  -0.000000   0.001888
   97  O  3 YYY  -0.000000  -0.000000   0.000740  -0.000000  -0.000000
   98  O  3 ZZZ  -0.000107   0.002873  -0.000000  -0.000208  -0.000000
   99  O  3 XXY  -0.000000  -0.000000  -0.002181   0.000000  -0.000000
  100  O  3 XXZ  -0.000073   0.002078  -0.000000   0.001720  -0.000000
  101  O  3 YYX  -0.000000  -0.000000  -0.000000  -0.000000   0.000400
  102  O  3 YYZ   0.000217  -0.005933  -0.000000  -0.001441  -0.000000
  103  O  3 ZZX  -0.000000  -0.000000  -0.000000  -0.000000  -0.002932
  104  O  3 ZZY  -0.000000  -0.000000   0.001188  -0.000000  -0.000000
  105  O  3 XYZ  -0.000000  -0.000000  -0.000000  -0.000000  -0.000000

                      6          7          8          9         10
                   -0.2018    -0.1277    -0.0704    -0.0538    -0.0530
                     A          A          A          A          A   
    1  H  1  S   -0.084562   0.043786   0.083365  -0.024790   0.000000
    2  H  1  S   -0.172523   0.108082   0.099410   0.016887   0.000000
    3  H  1  S   -0.204634   0.241886  -0.290663  -1.518811   0.000000
    4  H  1  X   -0.000000   0.000000  -0.000000  -0.000000   0.001114
    5  H  1  Y    0.007723  -0.006844  -0.005104   0.005552   0.000000
    6  H  1  Z    0.001343  -0.005043  -0.000591  -0.000652   0.000000
    7  H  1  X   -0.000000   0.000000  -0.000000  -0.000000   0.014016
    8  H  1  Y    0.043658  -0.030993  -0.100342  -0.032487   0.000000
    9  H  1  Z    0.011883  -0.025705  -0.018972  -0.032477   0.000000
   10  H  1 XX   -0.001339   0.000310   0.002995   0.002101   0.000000
   11  H  1 YY    0.002455   0.000061  -0.003971  -0.001473   0.000000
   12  H  1 ZZ   -0.001116  -0.000371   0.000976  -0.000629   0.000000
   13  H  1 XY   -0.000000   0.000000  -0.000000  -0.000000   0.001483
   14  H  1 XZ   -0.000000   0.000000  -0.000000  -0.000000   0.000913
   15  H  1 YZ    0.000938  -0.001110  -0.003068  -0.000932   0.000000
   16  H  1  S   -0.200235   1.023299  -0.896975  -0.216144   0.000000
   17  H  1  X   -0.000000   0.000000  -0.000000  -0.000000  -0.139218
   18  H  1  Y    0.131703  -0.160798  -0.497065  -0.251208   0.000000
   19  H  1  Z    0.044910  -0.124045  -0.129445  -0.105585   0.000000
   20  H  1 XX   -0.005816   0.010303   0.025471   0.011184   0.000000
   21  H  1 YY    0.011446  -0.004442  -0.055999  -0.022226   0.000000
   22  H  1 ZZ   -0.005630  -0.005860   0.030528   0.011042   0.000000
   23  H  1 XY   -0.000000   0.000000  -0.000000  -0.000000  -0.030603
   24  H  1 XZ   -0.000000   0.000000  -0.000000  -0.000000  -0.005427
   25  H  1 YZ    0.007316  -0.011887  -0.034066  -0.009709   0.000000
   26  H  2  S   -0.084562  -0.043786   0.083365  -0.024790   0.000000
   27  H  2  S   -0.172523  -0.108082   0.099410   0.016887   0.000000
   28  H  2  S   -0.204634  -0.241886  -0.290663  -1.518811   0.000000
   29  H  2  X   -0.000000   0.000000  -0.000000  -0.000000   0.001114
   30  H  2  Y   -0.007723  -0.006844   0.005104  -0.005552   0.000000
   31  H  2  Z    0.001343   0.005043  -0.000591  -0.000652   0.000000
   32  H  2  X   -0.000000   0.000000  -0.000000  -0.000000   0.014016
   33  H  2  Y   -0.043658  -0.030993   0.100342   0.032487   0.000000
   34  H  2  Z    0.011883   0.025705  -0.018972  -0.032477   0.000000
   35  H  2 XX   -0.001339  -0.000310   0.002995   0.002101   0.000000
   36  H  2 YY    0.002455  -0.000061  -0.003971  -0.001473   0.000000
   37  H  2 ZZ   -0.001116   0.000371   0.000976  -0.000629   0.000000
   38  H  2 XY   -0.000000   0.000000  -0.000000  -0.000000  -0.001483
   39  H  2 XZ   -0.000000   0.000000  -0.000000  -0.000000   0.000913
   40  H  2 YZ   -0.000938  -0.001110   0.003068   0.000932   0.000000
   41  H  2  S   -0.200235  -1.023299  -0.896975  -0.216144   0.000000
   42  H  2  X   -0.000000   0.000000  -0.000000  -0.000000  -0.139218
   43  H  2  Y   -0.131703  -0.160798   0.497065   0.251208   0.000000
   44  H  2  Z    0.044910   0.124045  -0.129445  -0.105585   0.000000
   45  H  2 XX   -0.005816  -0.010303   0.025471   0.011184   0.000000
   46  H  2 YY    0.011446   0.004442  -0.055999  -0.022226   0.000000
   47  H  2 ZZ   -0.005630   0.005860   0.030528   0.011042   0.000000
   48  H  2 XY   -0.000000   0.000000  -0.000000  -0.000000   0.030603
   49  H  2 XZ   -0.000000   0.000000  -0.000000  -0.000000  -0.005427
   50  H  2 YZ   -0.007316  -0.011887   0.034066   0.009709   0.000000
   51  O  3  S    0.011430   0.000000  -0.013618  -0.004908   0.000000
   52  O  3  S    0.204315   0.000000  -0.117454   0.032676   0.000000
   53  O  3  S    0.062221  -0.000000  -0.038376   0.013767   0.000000
   54  O  3  S    0.256566   0.000000   0.372536   0.391750   0.000000
   55  O  3  X   -0.000000   0.000000  -0.000000  -0.000000  -0.087196
   56  O  3  Y   -0.000000   0.143521  -0.000000   0.000000   0.000000
   57  O  3  Z   -0.097593   0.000000   0.063319   0.077197   0.000000
   58  O  3  X   -0.000000   0.000000  -0.000000  -0.000000  -0.093156
   59  O  3  Y    0.000000   0.184129  -0.000000   0.000000   0.000000
   60  O  3  Z   -0.127692  -0.000000   0.072803   0.084679   0.000000
   61  O  3  X   -0.000000   0.000000  -0.000000  -0.000000  -0.185740
   62  O  3  Y    0.000000   0.180182   0.000000  -0.000000   0.000000
   63  O  3  Z   -0.098640  -0.000000  -0.126074   0.073266   0.000000
   64  O  3 XX    0.002645   0.000000  -0.002275  -0.000317   0.000000
   65  O  3 YY   -0.004908   0.000000   0.004518  -0.001602   0.000000
   66  O  3 ZZ    0.002263   0.000000  -0.002243   0.001918   0.000000
   67  O  3 XY   -0.000000   0.000000  -0.000000  -0.000000   0.000000
   68  O  3 XZ   -0.000000   0.000000  -0.000000  -0.000000  -0.001676
   69  O  3 YZ   -0.000000   0.001105  -0.000000  -0.000000   0.000000
   70  O  3 XX    0.011099  -0.000000  -0.029786   0.017417   0.000000
   71  O  3 YY   -0.020402   0.000000   0.046888  -0.009129   0.000000
   72  O  3 ZZ    0.009303   0.000000  -0.017102  -0.008288   0.000000
   73  O  3 XY   -0.000000   0.000000  -0.000000  -0.000000   0.000000
   74  O  3 XZ   -0.000000   0.000000  -0.000000  -0.000000   0.015886
   75  O  3 YZ   -0.000000   0.008278  -0.000000   0.000000   0.000000
   76  O  3 XXX  -0.000000   0.000000  -0.000000  -0.000000   0.000642
   77  O  3 YYY  -0.000000   0.000851  -0.000000  -0.000000   0.000000
   78  O  3 ZZZ  -0.000111   0.000000   0.001142   0.000163   0.000000
   79  O  3 XXY  -0.000000   0.000470  -0.000000  -0.000000   0.000000
   80  O  3 XXZ  -0.000812   0.000000   0.001151   0.000629   0.000000
   81  O  3 YYX  -0.000000   0.000000  -0.000000  -0.000000  -0.000942
   82  O  3 YYZ   0.000960   0.000000  -0.002683  -0.000848   0.000000
   83  O  3 ZZX  -0.000000   0.000000  -0.000000  -0.000000   0.000080
   84  O  3 ZZY  -0.000000  -0.001612  -0.000000  -0.000000   0.000000
   85  O  3 XYZ  -0.000000   0.000000  -0.000000  -0.000000   0.000000
   86  O  3  S   -0.235244   0.000000   1.882155   2.600476   0.000000
   87  O  3  X   -0.000000   0.000000  -0.000000  -0.000000   1.299127
   88  O  3  Y   -0.000000   0.015506   0.000000  -0.000000   0.000000
   89  O  3  Z    0.058866  -0.000000  -0.167291  -1.581635   0.000000
   90  O  3 XX    0.014018  -0.000000  -0.031048  -0.046791   0.000000
   91  O  3 YY   -0.019048  -0.000000   0.015679  -0.008561   0.000000
   92  O  3 ZZ    0.005030   0.000000   0.015368   0.055352   0.000000
   93  O  3 XY   -0.000000   0.000000  -0.000000  -0.000000   0.000000
   94  O  3 XZ   -0.000000   0.000000  -0.000000  -0.000000  -0.081177
   95  O  3 YZ   -0.000000  -0.009476  -0.000000   0.000000   0.000000
   96  O  3 XXX  -0.000000   0.000000  -0.000000  -0.000000  -0.001421
   97  O  3 YYY  -0.000000  -0.000112   0.000000   0.000000   0.000000
   98  O  3 ZZZ  -0.001147   0.000000   0.006439  -0.007203   0.000000
   99  O  3 XXY  -0.000000  -0.000261  -0.000000  -0.000000   0.000000
  100  O  3 XXZ  -0.001503   0.000000   0.005470  -0.004159   0.000000
  101  O  3 YYX  -0.000000   0.000000  -0.000000  -0.000000  -0.000673
  102  O  3 YYZ   0.003042  -0.000000  -0.014109   0.013823   0.000000
  103  O  3 ZZX  -0.000000   0.000000  -0.000000  -0.000000   0.002580
  104  O  3 ZZY  -0.000000   0.000411  -0.000000  -0.000000   0.000000
  105  O  3 XYZ  -0.000000   0.000000  -0.000000  -0.000000   0.000000

                     11         12         13         14         15
                   -0.0363     0.0136     0.0170     0.0297     0.0876
                     A          A          A          A          A   
    1  H  1  S    0.067130   0.024481  -0.021978   0.000000  -0.036204
    2  H  1  S    0.109054   0.487656  -0.486408   0.000000  -0.375642
    3  H  1  S   -0.533692   2.343463  -2.180276   0.000000  -3.414729
    4  H  1  X    0.000000  -0.000000  -0.000000  -0.002366   0.000000
    5  H  1  Y   -0.003285  -0.002828  -0.003260   0.000000   0.006323
    6  H  1  Z   -0.005623  -0.003815   0.002826   0.000000  -0.001659
    7  H  1  X    0.000000  -0.000000  -0.000000  -0.141603   0.000000
    8  H  1  Y   -0.076966   0.209815  -0.108180   0.000000  -0.283483
    9  H  1  Z   -0.072437   0.014148  -0.178278   0.000000   0.017797
   10  H  1 XX    0.001120  -0.006516   0.004704   0.000000   0.008685
   11  H  1 YY   -0.001058   0.009461  -0.010866   0.000000  -0.012433
   12  H  1 ZZ   -0.000062  -0.002945   0.006162   0.000000   0.003749
   13  H  1 XY    0.000000  -0.000000  -0.000000   0.000074   0.000000
   14  H  1 XZ    0.000000  -0.000000  -0.000000   0.003316   0.000000
   15  H  1 YZ   -0.002429   0.004180  -0.009329   0.000000  -0.014745
   16  H  1  S   -2.384928   2.024079  -0.630903   0.000000  -0.425927
   17  H  1  X    0.000000  -0.000000  -0.000000  -1.244228   0.000000
   18  H  1  Y   -0.495179   0.345921  -0.064725   0.000000  -0.996435
   19  H  1  Z   -0.549470  -0.201234  -0.831919   0.000000   0.999379
   20  H  1 XX    0.042683   0.031743   0.016420   0.000000   0.067426
   21  H  1 YY   -0.022690   0.018052   0.063347   0.000000  -0.174301
   22  H  1 ZZ   -0.019993  -0.049794  -0.079768   0.000000   0.106875
   23  H  1 XY    0.000000  -0.000000  -0.000000  -0.153494   0.000000
   24  H  1 XZ    0.000000  -0.000000  -0.000000  -0.115526   0.000000
   25  H  1 YZ   -0.064186  -0.022843  -0.083835   0.000000   0.098574
   26  H  2  S   -0.067130  -0.024481  -0.021978   0.000000  -0.036204
   27  H  2  S   -0.109054  -0.487656  -0.486408   0.000000  -0.375642
   28  H  2  S    0.533692  -2.343463  -2.180276   0.000000  -3.414729
   29  H  2  X    0.000000  -0.000000  -0.000000   0.002366   0.000000
   30  H  2  Y   -0.003285  -0.002828   0.003260   0.000000  -0.006323
   31  H  2  Z    0.005623   0.003815   0.002826   0.000000  -0.001659
   32  H  2  X    0.000000  -0.000000  -0.000000   0.141603   0.000000
   33  H  2  Y   -0.076966   0.209815   0.108180   0.000000   0.283483
   34  H  2  Z    0.072437  -0.014148  -0.178278   0.000000   0.017797
   35  H  2 XX   -0.001120   0.006516   0.004704   0.000000   0.008685
   36  H  2 YY    0.001058  -0.009461  -0.010866   0.000000  -0.012433
   37  H  2 ZZ    0.000062   0.002945   0.006162   0.000000   0.003749
   38  H  2 XY    0.000000  -0.000000  -0.000000   0.000074   0.000000
   39  H  2 XZ    0.000000  -0.000000  -0.000000  -0.003316   0.000000
   40  H  2 YZ   -0.002429   0.004180   0.009329   0.000000   0.014745
   41  H  2  S    2.384928  -2.024079  -0.630903   0.000000  -0.425927
   42  H  2  X    0.000000  -0.000000  -0.000000   1.244228   0.000000
   43  H  2  Y   -0.495179   0.345921   0.064725   0.000000   0.996435
   44  H  2  Z    0.549470   0.201234  -0.831919   0.000000   0.999379
   45  H  2 XX   -0.042683  -0.031743   0.016420   0.000000   0.067426
   46  H  2 YY    0.022690  -0.018052   0.063347   0.000000  -0.174301
   47  H  2 ZZ    0.019993   0.049794  -0.079768   0.000000   0.106875
   48  H  2 XY    0.000000  -0.000000  -0.000000  -0.153494   0.000000
   49  H  2 XZ    0.000000  -0.000000  -0.000000   0.115526   0.000000
   50  H  2 YZ   -0.064186  -0.022843   0.083835   0.000000  -0.098574
   51  O  3  S    0.000000   0.000000  -0.028644   0.000000  -0.013939
   52  O  3  S    0.000000   0.000000  -0.130058   0.000000  -0.040824
   53  O  3  S   -0.000000   0.000000  -0.046719   0.000000  -0.027766
   54  O  3  S    0.000000  -0.000000   0.481972   0.000000   0.884660
   55  O  3  X    0.000000  -0.000000  -0.000000   0.000000   0.000000
   56  O  3  Y    0.129219  -0.027071  -0.000000   0.000000   0.000000
   57  O  3  Z   -0.000000   0.000000  -0.009382   0.000000  -0.087450
   58  O  3  X    0.000000  -0.000000  -0.000000   0.000000   0.000000
   59  O  3  Y    0.149364  -0.018751  -0.000000   0.000000   0.000000
   60  O  3  Z   -0.000000   0.000000  -0.026373   0.000000  -0.088392
   61  O  3  X    0.000000  -0.000000  -0.000000  -0.000000   0.000000
   62  O  3  Y   -0.150300   0.779325   0.000000   0.000000   0.000000
   63  O  3  Z   -0.000000   0.000000  -0.157168   0.000000  -1.394731
   64  O  3 XX    0.000000  -0.000000   0.004106   0.000000   0.008659
   65  O  3 YY    0.000000   0.000000  -0.006863   0.000000  -0.006583
   66  O  3 ZZ    0.000000  -0.000000   0.002757   0.000000  -0.002076
   67  O  3 XY    0.000000  -0.000000  -0.000000   0.004122   0.000000
   68  O  3 XZ    0.000000  -0.000000  -0.000000   0.000000   0.000000
   69  O  3 YZ    0.002894   0.006752   0.000000   0.000000   0.000000
   70  O  3 XX   -0.000000   0.000000  -0.023535   0.000000  -0.038608
   71  O  3 YY    0.000000  -0.000000   0.013929   0.000000   0.062330
   72  O  3 ZZ   -0.000000   0.000000   0.009606   0.000000  -0.023721
   73  O  3 XY    0.000000  -0.000000  -0.000000   0.028136   0.000000
   74  O  3 XZ    0.000000  -0.000000  -0.000000   0.000000   0.000000
   75  O  3 YZ    0.035086  -0.009289  -0.000000   0.000000  -0.000000
   76  O  3 XXX   0.000000  -0.000000  -0.000000   0.000000   0.000000
   77  O  3 YYY   0.001676   0.001453  -0.000000   0.000000  -0.000000
   78  O  3 ZZZ   0.000000  -0.000000  -0.001915   0.000000   0.004237
   79  O  3 XXY   0.001065   0.002673   0.000000   0.000000   0.000000
   80  O  3 XXZ   0.000000  -0.000000   0.001051   0.000000  -0.003349
   81  O  3 YYX   0.000000  -0.000000  -0.000000   0.000000   0.000000
   82  O  3 YYZ   0.000000  -0.000000   0.001518   0.000000  -0.002336
   83  O  3 ZZX   0.000000  -0.000000  -0.000000   0.000000   0.000000
   84  O  3 ZZY  -0.003313  -0.004623  -0.000000   0.000000   0.000000
   85  O  3 XYZ   0.000000  -0.000000  -0.000000  -0.007343   0.000000
   86  O  3  S   -0.000000  -0.000000   5.519459   0.000000   6.589168
   87  O  3  X    0.000000  -0.000000  -0.000000   0.000000   0.000000
   88  O  3  Y   -0.893172   2.934877   0.000000   0.000000   0.000000
   89  O  3  Z    0.000000  -0.000000   0.234192   0.000000  -2.621051
   90  O  3 XX   -0.000000   0.000000  -0.192702   0.000000  -0.090675
   91  O  3 YY    0.000000  -0.000000   0.515216   0.000000  -0.168771
   92  O  3 ZZ   -0.000000   0.000000  -0.322514   0.000000   0.259446
   93  O  3 XY    0.000000  -0.000000  -0.000000  -0.433533   0.000000
   94  O  3 XZ    0.000000  -0.000000  -0.000000   0.000000   0.000000
   95  O  3 YZ   -0.018806  -0.431305  -0.000000   0.000000   0.000000
   96  O  3 XXX   0.000000  -0.000000  -0.000000   0.000000   0.000000
   97  O  3 YYY  -0.011536   0.000165   0.000000   0.000000   0.000000
   98  O  3 ZZZ   0.000000  -0.000000   0.029653   0.000000   0.010514
   99  O  3 XXY   0.005990  -0.031398  -0.000000   0.000000  -0.000000
  100  O  3 XXZ   0.000000  -0.000000   0.007249   0.000000   0.033196
  101  O  3 YYX   0.000000  -0.000000  -0.000000   0.000000   0.000000
  102  O  3 YYZ  -0.000000   0.000000  -0.047033   0.000000  -0.047302
  103  O  3 ZZX   0.000000  -0.000000  -0.000000   0.000000   0.000000
  104  O  3 ZZY   0.009488   0.031177   0.000000   0.000000  -0.000000
  105  O  3 XYZ   0.000000  -0.000000  -0.000000   0.040482   0.000000

                     16         17         18         19         20
                    0.0915     0.1501     0.1552     0.1812     0.3386
                     A          A          A          A          A   
    1  H  1  S   -0.000000   0.043395  -0.075915   0.071283   0.096342
    2  H  1  S   -0.000000  -0.026035  -0.256070   0.454010   0.302048
    3  H  1  S   -0.000000   1.315917  -3.376218   5.261582  -6.422032
    4  H  1  X   -0.006422   0.000000   0.000000  -0.000000  -0.000000
    5  H  1  Y   -0.000000  -0.009521   0.008831  -0.009416   0.012364
    6  H  1  Z   -0.000000   0.007848  -0.005974  -0.010633   0.028832
    7  H  1  X   -0.102047   0.000000   0.000000  -0.000000  -0.000000
    8  H  1  Y   -0.000000  -0.028263  -0.168712   0.176750  -0.262919
    9  H  1  Z   -0.000000   0.023311  -0.039887   0.181841  -0.285065
   10  H  1 XX   -0.000000  -0.001714   0.007655  -0.001052   0.008593
   11  H  1 YY   -0.000000   0.004953  -0.003221  -0.001056  -0.013783
   12  H  1 ZZ   -0.000000  -0.003238  -0.004434   0.002108   0.005190
   13  H  1 XY    0.002350   0.000000   0.000000  -0.000000  -0.000000
   14  H  1 XZ   -0.003908   0.000000   0.000000  -0.000000  -0.000000
   15  H  1 YZ   -0.000000  -0.002054  -0.006104   0.009909  -0.011939
   16  H  1  S   -0.000000   1.197551  -0.750229   1.736860  -0.423109
   17  H  1  X   -1.728760   0.000000   0.000000  -0.000000  -0.000000
   18  H  1  Y   -0.000000  -1.566893  -2.107303   2.945473  -1.259001
   19  H  1  Z   -0.000000   1.473179  -1.234758   1.297211  -1.236673
   20  H  1 XX   -0.000000   0.014526   0.116924  -0.174461   0.062761
   21  H  1 YY   -0.000000  -0.155851  -0.243609   0.170225   0.109985
   22  H  1 ZZ   -0.000000   0.141325   0.126685   0.004236  -0.172747
   23  H  1 XY   -0.234232   0.000000   0.000000  -0.000000  -0.000000
   24  H  1 XZ   -0.027712   0.000000   0.000000  -0.000000  -0.000000
   25  H  1 YZ   -0.000000   0.111051  -0.228716   0.221487  -0.205702
   26  H  2  S   -0.000000  -0.043395  -0.075915  -0.071283   0.096342
   27  H  2  S   -0.000000   0.026035  -0.256070  -0.454010   0.302048
   28  H  2  S   -0.000000  -1.315917  -3.376218  -5.261582  -6.422032
   29  H  2  X   -0.006422   0.000000   0.000000  -0.000000  -0.000000
   30  H  2  Y   -0.000000  -0.009521  -0.008831  -0.009416  -0.012364
   31  H  2  Z   -0.000000  -0.007848  -0.005974   0.010633   0.028832
   32  H  2  X   -0.102047   0.000000   0.000000  -0.000000  -0.000000
   33  H  2  Y   -0.000000  -0.028263   0.168712   0.176750   0.262919
   34  H  2  Z   -0.000000  -0.023311  -0.039887  -0.181841  -0.285065
   35  H  2 XX   -0.000000   0.001714   0.007655   0.001052   0.008593
   36  H  2 YY   -0.000000  -0.004953  -0.003221   0.001056  -0.013783
   37  H  2 ZZ   -0.000000   0.003238  -0.004434  -0.002108   0.005190
   38  H  2 XY   -0.002350   0.000000   0.000000  -0.000000  -0.000000
   39  H  2 XZ   -0.003908   0.000000   0.000000  -0.000000  -0.000000
   40  H  2 YZ   -0.000000  -0.002054   0.006104   0.009909   0.011939
   41  H  2  S   -0.000000  -1.197551  -0.750229  -1.736860  -0.423109
   42  H  2  X   -1.728760   0.000000   0.000000  -0.000000  -0.000000
   43  H  2  Y   -0.000000  -1.566893   2.107303   2.945473   1.259001
   44  H  2  Z   -0.000000  -1.473179  -1.234758  -1.297211  -1.236673
   45  H  2 XX   -0.000000  -0.014526   0.116924   0.174461   0.062761
   46  H  2 YY   -0.000000   0.155851  -0.243609  -0.170225   0.109985
   47  H  2 ZZ   -0.000000  -0.141325   0.126685  -0.004236  -0.172747
   48  H  2 XY    0.234232   0.000000   0.000000  -0.000000  -0.000000
   49  H  2 XZ   -0.027712   0.000000   0.000000  -0.000000  -0.000000
   50  H  2 YZ   -0.000000   0.111051   0.228716   0.221487   0.205702
   51  O  3  S   -0.000000   0.000000  -0.023963  -0.000000  -0.060525
   52  O  3  S   -0.000000   0.000000   0.094903  -0.000000  -0.085431
   53  O  3  S   -0.000000   0.000000   0.031446  -0.000000  -0.019385
   54  O  3  S   -0.000000   0.000000   3.101255  -0.000000   2.523688
   55  O  3  X    0.058902   0.000000   0.000000  -0.000000  -0.000000
   56  O  3  Y   -0.000000   0.066154   0.000000   0.158459   0.000000
   57  O  3  Z   -0.000000  -0.000000  -0.069536   0.000000  -0.035082
   58  O  3  X    0.016934   0.000000   0.000000  -0.000000  -0.000000
   59  O  3  Y   -0.000000   0.082253   0.000000   0.290399  -0.000000
   60  O  3  Z   -0.000000  -0.000000  -0.165227   0.000000  -0.148728
   61  O  3  X    1.001424   0.000000   0.000000  -0.000000  -0.000000
   62  O  3  Y   -0.000000   0.284733   0.000000   1.837538  -0.000000
   63  O  3  Z   -0.000000  -0.000000  -0.547524  -0.000000   0.109271
   64  O  3 XX   -0.000000   0.000000   0.007766  -0.000000  -0.012346
   65  O  3 YY   -0.000000   0.000000  -0.013637  -0.000000   0.018680
   66  O  3 ZZ   -0.000000   0.000000   0.005871  -0.000000  -0.006333
   67  O  3 XY   -0.000000   0.000000   0.000000  -0.000000  -0.000000
   68  O  3 XZ    0.004913   0.000000   0.000000  -0.000000  -0.000000
   69  O  3 YZ   -0.000000   0.000752   0.000000   0.011795   0.000000
   70  O  3 XX   -0.000000   0.000000  -0.042264  -0.000000  -0.041802
   71  O  3 YY   -0.000000  -0.000000   0.047092  -0.000000   0.075897
   72  O  3 ZZ   -0.000000   0.000000  -0.004828  -0.000000  -0.034094
   73  O  3 XY   -0.000000   0.000000   0.000000  -0.000000  -0.000000
   74  O  3 XZ    0.013024   0.000000   0.000000  -0.000000  -0.000000
   75  O  3 YZ   -0.000000  -0.004016  -0.000000  -0.062910   0.000000
   76  O  3 XXX   0.007618   0.000000   0.000000  -0.000000  -0.000000
   77  O  3 YYY  -0.000000  -0.006332   0.000000  -0.001359  -0.000000
   78  O  3 ZZZ  -0.000000   0.000000   0.004630  -0.000000   0.006084
   79  O  3 XXY  -0.000000  -0.000201   0.000000  -0.002204  -0.000000
   80  O  3 XXZ  -0.000000   0.000000   0.004397  -0.000000   0.005711
   81  O  3 YYX  -0.006788   0.000000   0.000000  -0.000000  -0.000000
   82  O  3 YYZ  -0.000000   0.000000  -0.010608   0.000000  -0.013875
   83  O  3 ZZX  -0.003432   0.000000   0.000000  -0.000000  -0.000000
   84  O  3 ZZY  -0.000000   0.008697   0.000000   0.004028   0.000000
   85  O  3 XYZ  -0.000000   0.000000   0.000000  -0.000000  -0.000000
   86  O  3  S   -0.000000   0.000000   6.757523  -0.000000  10.262127
   87  O  3  X    2.136645   0.000000   0.000000  -0.000000  -0.000000
   88  O  3  Y   -0.000000   3.766990  -0.000000   1.684205  -0.000000
   89  O  3  Z   -0.000000   0.000000  -0.080705   0.000000  -1.148814
   90  O  3 XX   -0.000000   0.000000   0.226757  -0.000000  -0.436313
   91  O  3 YY   -0.000000  -0.000000  -0.359976  -0.000000   1.040137
   92  O  3 ZZ   -0.000000   0.000000   0.133218   0.000000  -0.603824
   93  O  3 XY    0.000000   0.000000   0.000000  -0.000000  -0.000000
   94  O  3 XZ   -0.222036   0.000000   0.000000  -0.000000  -0.000000
   95  O  3 YZ   -0.000000   0.322269  -0.000000   0.242590   0.000000
   96  O  3 XXX  -0.042311   0.000000   0.000000  -0.000000  -0.000000
   97  O  3 YYY  -0.000000   0.027223   0.000000   0.050382   0.000000
   98  O  3 ZZZ  -0.000000  -0.000000  -0.013533   0.000000   0.006222
   99  O  3 XXY  -0.000000   0.006892  -0.000000  -0.011647   0.000000
  100  O  3 XXZ  -0.000000   0.000000  -0.016558   0.000000  -0.012549
  101  O  3 YYX   0.045021   0.000000   0.000000  -0.000000  -0.000000
  102  O  3 YYZ  -0.000000   0.000000   0.034714  -0.000000   0.004201
  103  O  3 ZZX   0.011745   0.000000   0.000000  -0.000000  -0.000000
  104  O  3 ZZY  -0.000000  -0.043416   0.000000  -0.055947  -0.000000
  105  O  3 XYZ  -0.000000   0.000000   0.000000  -0.000000  -0.000000

                     21         22         23         24         25
                    0.3430     0.4058     0.4087     0.4242     0.5109
                     A          A          A          A          A   
    1  H  1  S    0.115198  -0.006201   0.000000   0.000000   0.051320
    2  H  1  S   -1.158425  -0.580494   0.000000   0.000000   1.797353
    3  H  1  S   -6.730513  -1.017893   0.000000   0.000000  -2.117212
    4  H  1  X   -0.000000  -0.000000   0.004916  -0.033312   0.000000
    5  H  1  Y    0.022377   0.000023   0.000000   0.000000   0.042367
    6  H  1  Z   -0.000199  -0.008761   0.000000   0.000000  -0.029919
    7  H  1  X   -0.000000  -0.000000  -0.103773   0.292033   0.000000
    8  H  1  Y   -0.696985  -0.151174   0.000000   0.000000  -0.081974
    9  H  1  Z   -0.228558  -0.000238   0.000000   0.000000   0.356914
   10  H  1 XX    0.021968   0.012844   0.000000   0.000000  -0.001018
   11  H  1 YY   -0.027673  -0.001366   0.000000   0.000000   0.008824
   12  H  1 ZZ    0.005705  -0.011477   0.000000   0.000000  -0.007806
   13  H  1 XY   -0.000000  -0.000000  -0.011563   0.004610   0.000000
   14  H  1 XZ   -0.000000  -0.000000   0.009582  -0.004653   0.000000
   15  H  1 YZ   -0.012193   0.000816   0.000000   0.000000  -0.002380
   16  H  1  S   -1.230890  -0.070965   0.000000   0.000000   0.010596
   17  H  1  X   -0.000000  -0.000000  -0.858596   1.411557   0.000000
   18  H  1  Y   -1.659236  -0.262801   0.000000   0.000000  -0.983484
   19  H  1  Z   -0.364544   0.670491   0.000000   0.000000   0.984293
   20  H  1 XX   -0.086205  -0.180576   0.000000   0.000000   0.158282
   21  H  1 YY   -0.112757  -0.109209   0.000000   0.000000  -0.529671
   22  H  1 ZZ    0.198962   0.289785   0.000000   0.000000   0.371390
   23  H  1 XY   -0.000000  -0.000000   0.071786   0.571729   0.000000
   24  H  1 XZ   -0.000000  -0.000000  -0.295399   0.298317   0.000000
   25  H  1 YZ    0.101114  -0.095219   0.000000   0.000000   0.507058
   26  H  2  S   -0.115198  -0.006201   0.000000   0.000000   0.051320
   27  H  2  S    1.158425  -0.580494   0.000000   0.000000   1.797353
   28  H  2  S    6.730513  -1.017893   0.000000   0.000000  -2.117212
   29  H  2  X   -0.000000  -0.000000   0.004916   0.033312   0.000000
   30  H  2  Y    0.022377  -0.000023   0.000000   0.000000  -0.042367
   31  H  2  Z    0.000199  -0.008761   0.000000   0.000000  -0.029919
   32  H  2  X   -0.000000  -0.000000  -0.103773  -0.292033   0.000000
   33  H  2  Y   -0.696985   0.151174   0.000000   0.000000   0.081974
   34  H  2  Z    0.228558  -0.000238   0.000000   0.000000   0.356914
   35  H  2 XX   -0.021968   0.012844   0.000000   0.000000  -0.001018
   36  H  2 YY    0.027673  -0.001366   0.000000   0.000000   0.008824
   37  H  2 ZZ   -0.005705  -0.011477   0.000000   0.000000  -0.007806
   38  H  2 XY   -0.000000  -0.000000   0.011563   0.004610   0.000000
   39  H  2 XZ   -0.000000  -0.000000   0.009582   0.004653   0.000000
   40  H  2 YZ   -0.012193  -0.000816   0.000000   0.000000   0.002380
   41  H  2  S    1.230890  -0.070965   0.000000   0.000000   0.010596
   42  H  2  X   -0.000000  -0.000000  -0.858596  -1.411557   0.000000
   43  H  2  Y   -1.659236   0.262801   0.000000   0.000000   0.983484
   44  H  2  Z    0.364544   0.670491   0.000000   0.000000   0.984293
   45  H  2 XX    0.086205  -0.180576   0.000000   0.000000   0.158282
   46  H  2 YY    0.112757  -0.109209   0.000000   0.000000  -0.529671
   47  H  2 ZZ   -0.198962   0.289785   0.000000   0.000000   0.371390
   48  H  2 XY   -0.000000  -0.000000  -0.071786   0.571729   0.000000
   49  H  2 XZ   -0.000000  -0.000000  -0.295399  -0.298317   0.000000
   50  H  2 YZ    0.101114   0.095219   0.000000   0.000000  -0.507057
   51  O  3  S    0.000000  -0.016311   0.000000   0.000000   0.011149
   52  O  3  S    0.000000  -0.038944   0.000000   0.000000  -0.072104
   53  O  3  S    0.000000  -0.017634   0.000000   0.000000  -0.012094
   54  O  3  S   -0.000000   0.656071   0.000000   0.000000  -0.493718
   55  O  3  X   -0.000000  -0.000000   0.039394   0.000000   0.000000
   56  O  3  Y    0.017348  -0.000000   0.000000   0.000000  -0.000000
   57  O  3  Z    0.000000  -0.039861   0.000000   0.000000   0.025216
   58  O  3  X   -0.000000  -0.000000   0.071767   0.000000   0.000000
   59  O  3  Y   -0.042740  -0.000000   0.000000   0.000000  -0.000000
   60  O  3  Z    0.000000  -0.097679   0.000000   0.000000   0.085021
   61  O  3  X   -0.000000  -0.000000   0.327930   0.000000   0.000000
   62  O  3  Y   -3.114640   0.000000   0.000000   0.000000  -0.000000
   63  O  3  Z    0.000000  -0.701933   0.000000   0.000000  -1.178972
   64  O  3 XX    0.000000  -0.025251   0.000000   0.000000  -0.008764
   65  O  3 YY   -0.000000  -0.002588   0.000000   0.000000  -0.002141
   66  O  3 ZZ    0.000000   0.027839   0.000000   0.000000   0.010905
   67  O  3 XY   -0.000000  -0.000000   0.000000   0.025459   0.000000
   68  O  3 XZ   -0.000000  -0.000000  -0.031741   0.000000   0.000000
   69  O  3 YZ    0.011319   0.000000   0.000000   0.000000   0.000000
   70  O  3 XX    0.000000   0.026773   0.000000   0.000000   0.022917
   71  O  3 YY   -0.000000   0.031011   0.000000   0.000000  -0.052178
   72  O  3 ZZ    0.000000  -0.057784   0.000000   0.000000   0.029261
   73  O  3 XY   -0.000000  -0.000000   0.000000   0.015226   0.000000
   74  O  3 XZ   -0.000000  -0.000000   0.057449   0.000000   0.000000
   75  O  3 YZ    0.166216  -0.000000   0.000000   0.000000   0.000000
   76  O  3 XXX  -0.000000  -0.000000   0.005955   0.000000   0.000000
   77  O  3 YYY  -0.005420  -0.000000   0.000000   0.000000   0.000000
   78  O  3 ZZZ  -0.000000  -0.009385   0.000000   0.000000   0.018999
   79  O  3 XXY  -0.005098   0.000000   0.000000   0.000000  -0.000000
   80  O  3 XXZ  -0.000000  -0.002224   0.000000   0.000000  -0.003772
   81  O  3 YYX  -0.000000  -0.000000  -0.014170   0.000000   0.000000
   82  O  3 YYZ   0.000000   0.014816   0.000000   0.000000  -0.021718
   83  O  3 ZZX  -0.000000  -0.000000   0.006179   0.000000   0.000000
   84  O  3 ZZY   0.012369   0.000000   0.000000   0.000000   0.000000
   85  O  3 XYZ  -0.000000  -0.000000   0.000000   0.021104   0.000000
   86  O  3  S   -0.000000   1.909922   0.000000   0.000000   2.297373
   87  O  3  X   -0.000000  -0.000000   1.129240  -0.000000   0.000000
   88  O  3  Y   -3.516041  -0.000000   0.000000   0.000000   0.000000
   89  O  3  Z    0.000000  -1.268244   0.000000   0.000000  -1.554976
   90  O  3 XX    0.000000  -0.856804   0.000000   0.000000   0.373813
   91  O  3 YY   -0.000000   0.129096   0.000000   0.000000  -2.140708
   92  O  3 ZZ    0.000000   0.727707   0.000000   0.000000   1.766895
   93  O  3 XY   -0.000000  -0.000000   0.000000   2.029183   0.000000
   94  O  3 XZ   -0.000000  -0.000000  -0.853159   0.000000   0.000000
   95  O  3 YZ    1.833175   0.000000   0.000000   0.000000   0.000000
   96  O  3 XXX  -0.000000  -0.000000  -0.048415   0.000000   0.000000
   97  O  3 YYY  -0.008144   0.000000   0.000000   0.000000  -0.000000
   98  O  3 ZZZ  -0.000000   0.055475   0.000000   0.000000  -0.136195
   99  O  3 XXY   0.124364  -0.000000   0.000000   0.000000   0.000000
  100  O  3 XXZ  -0.000000   0.033989   0.000000   0.000000   0.015866
  101  O  3 YYX  -0.000000  -0.000000   0.084606   0.000000   0.000000
  102  O  3 YYZ   0.000000  -0.108416   0.000000   0.000000   0.166859
  103  O  3 ZZX  -0.000000  -0.000000  -0.019651   0.000000   0.000000
  104  O  3 ZZY  -0.113437  -0.000000   0.000000   0.000000  -0.000000
  105  O  3 XYZ  -0.000000  -0.000000  -0.000000  -0.163239   0.000000

                     26         27         28         29         30
                    0.5696     0.5907     0.6011     0.6315     0.6381
                     A          A          A          A          A   
    1  H  1  S   -0.037654  -0.000000   0.000000   0.079816   0.000000
    2  H  1  S   -1.421944  -0.000000   0.000000  -2.706494   0.000000
    3  H  1  S    1.823390  -0.000000   0.000000  -5.543112   0.000000
    4  H  1  X   -0.000000   0.020441  -0.003207   0.000000   0.003494
    5  H  1  Y   -0.004090  -0.000000   0.000000  -0.009695   0.000000
    6  H  1  Z   -0.011232  -0.000000   0.000000  -0.021992   0.000000
    7  H  1  X   -0.000000  -0.140225  -0.063675   0.000000  -0.147462
    8  H  1  Y   -0.002311  -0.000000   0.000000  -1.359874   0.000000
    9  H  1  Z    0.144949  -0.000000   0.000000  -0.465930   0.000000
   10  H  1 XX   -0.026385  -0.000000   0.000000   0.032813   0.000000
   11  H  1 YY    0.005612  -0.000000   0.000000  -0.060832   0.000000
   12  H  1 ZZ    0.020773  -0.000000   0.000000   0.028019   0.000000
   13  H  1 XY   -0.000000   0.021380  -0.003485   0.000000  -0.030997
   14  H  1 XZ   -0.000000  -0.019110  -0.040383   0.000000  -0.009135
   15  H  1 YZ    0.006451  -0.000000   0.000000  -0.064803   0.000000
   16  H  1  S    0.217798  -0.000000   0.000000  -0.463159   0.000000
   17  H  1  X   -0.000000  -1.599869   0.467348   0.000000  -0.842661
   18  H  1  Y    0.004851  -0.000000   0.000000  -1.821656   0.000000
   19  H  1  Z    0.807184  -0.000000   0.000000  -0.052980   0.000000
   20  H  1 XX    0.471527  -0.000000   0.000000   0.397988   0.000000
   21  H  1 YY   -0.185040  -0.000000   0.000000  -0.803057   0.000000
   22  H  1 ZZ   -0.286487  -0.000000   0.000000   0.405069   0.000000
   23  H  1 XY   -0.000000  -1.142371   0.251549   0.000000  -0.164886
   24  H  1 XZ   -0.000000   0.074753   0.888167   0.000000  -0.386212
   25  H  1 YZ    0.268352  -0.000000   0.000000  -0.002526   0.000000
   26  H  2  S    0.037654  -0.000000   0.000000   0.079816   0.000000
   27  H  2  S    1.421944  -0.000000   0.000000  -2.706494   0.000000
   28  H  2  S   -1.823390  -0.000000   0.000000  -5.543112   0.000000
   29  H  2  X   -0.000000   0.020441   0.003207   0.000000   0.003494
   30  H  2  Y   -0.004090  -0.000000   0.000000   0.009695   0.000000
   31  H  2  Z    0.011232  -0.000000   0.000000  -0.021992   0.000000
   32  H  2  X   -0.000000  -0.140225   0.063675   0.000000  -0.147462
   33  H  2  Y   -0.002311  -0.000000   0.000000   1.359874   0.000000
   34  H  2  Z   -0.144949  -0.000000   0.000000  -0.465930   0.000000
   35  H  2 XX    0.026385  -0.000000   0.000000   0.032813   0.000000
   36  H  2 YY   -0.005612  -0.000000   0.000000  -0.060832   0.000000
   37  H  2 ZZ   -0.020773  -0.000000   0.000000   0.028019   0.000000
   38  H  2 XY   -0.000000  -0.021380  -0.003485   0.000000   0.030997
   39  H  2 XZ   -0.000000  -0.019110   0.040383   0.000000  -0.009135
   40  H  2 YZ    0.006451  -0.000000   0.000000   0.064803   0.000000
   41  H  2  S   -0.217798  -0.000000   0.000000  -0.463159   0.000000
   42  H  2  X   -0.000000  -1.599869  -0.467348   0.000000  -0.842661
   43  H  2  Y    0.004851  -0.000000   0.000000   1.821656   0.000000
   44  H  2  Z   -0.807184  -0.000000   0.000000  -0.052980   0.000000
   45  H  2 XX   -0.471527  -0.000000   0.000000   0.397988   0.000000
   46  H  2 YY    0.185040  -0.000000   0.000000  -0.803057   0.000000
   47  H  2 ZZ    0.286487  -0.000000   0.000000   0.405069   0.000000
   48  H  2 XY   -0.000000   1.142371   0.251549   0.000000   0.164886
   49  H  2 XZ   -0.000000   0.074753  -0.888167   0.000000  -0.386212
   50  H  2 YZ    0.268352  -0.000000   0.000000   0.002526   0.000000
   51  O  3  S    0.000000  -0.000000   0.000000  -0.084894   0.000000
   52  O  3  S    0.000000  -0.000000   0.000000  -0.081428   0.000000
   53  O  3  S    0.000000  -0.000000   0.000000  -0.095898   0.000000
   54  O  3  S   -0.000000  -0.000000   0.000000   6.939334   0.000000
   55  O  3  X   -0.000000  -0.022429   0.000000   0.000000  -0.221321
   56  O  3  Y   -0.088724  -0.000000   0.000000  -0.000000   0.000000
   57  O  3  Z   -0.000000  -0.000000   0.000000   0.217989   0.000000
   58  O  3  X   -0.000000  -0.096901   0.000000   0.000000  -0.742261
   59  O  3  Y   -0.134354  -0.000000   0.000000   0.000000   0.000000
   60  O  3  Z   -0.000000  -0.000000   0.000000   0.323971   0.000000
   61  O  3  X   -0.000000   2.492017   0.000000   0.000000   2.504824
   62  O  3  Y   -0.383453  -0.000000   0.000000   0.000000   0.000000
   63  O  3  Z    0.000000  -0.000000   0.000000  -4.800558   0.000000
   64  O  3 XX   -0.000000  -0.000000   0.000000   0.022584   0.000000
   65  O  3 YY    0.000000  -0.000000   0.000000  -0.021591   0.000000
   66  O  3 ZZ   -0.000000  -0.000000   0.000000  -0.000992   0.000000
   67  O  3 XY   -0.000000  -0.000000  -0.011865   0.000000   0.000000
   68  O  3 XZ   -0.000000  -0.012182   0.000000   0.000000   0.010212
   69  O  3 YZ    0.012478  -0.000000   0.000000   0.000000   0.000000
   70  O  3 XX    0.000000  -0.000000   0.000000  -0.317039   0.000000
   71  O  3 YY   -0.000000  -0.000000   0.000000   0.392058   0.000000
   72  O  3 ZZ    0.000000  -0.000000   0.000000  -0.075019   0.000000
   73  O  3 XY   -0.000000  -0.000000   0.053965   0.000000   0.000000
   74  O  3 XZ   -0.000000  -0.009016   0.000000   0.000000  -0.059131
   75  O  3 YZ   -0.039009  -0.000000   0.000000  -0.000000   0.000000
   76  O  3 XXX  -0.000000   0.017917   0.000000   0.000000   0.007503
   77  O  3 YYY   0.008029  -0.000000   0.000000  -0.000000   0.000000
   78  O  3 ZZZ  -0.000000  -0.000000   0.000000   0.002131   0.000000
   79  O  3 XXY  -0.026584  -0.000000   0.000000   0.000000   0.000000
   80  O  3 XXZ  -0.000000  -0.000000   0.000000  -0.004002   0.000000
   81  O  3 YYX  -0.000000  -0.009702   0.000000   0.000000  -0.018462
   82  O  3 YYZ   0.000000  -0.000000   0.000000   0.001143   0.000000
   83  O  3 ZZX  -0.000000  -0.014335   0.000000   0.000000   0.008396
   84  O  3 ZZY   0.015811  -0.000000   0.000000   0.000000   0.000000
   85  O  3 XYZ  -0.000000  -0.000000  -0.004329   0.000000   0.000000
   86  O  3  S   -0.000000  -0.000000   0.000000   9.169212   0.000000
   87  O  3  X   -0.000000   1.362214   0.000000   0.000000   0.219147
   88  O  3  Y    1.137468  -0.000000   0.000000   0.000000   0.000000
   89  O  3  Z    0.000000  -0.000000   0.000000  -1.164820   0.000000
   90  O  3 XX    0.000000  -0.000000   0.000000  -1.109819   0.000000
   91  O  3 YY    0.000000  -0.000000   0.000000   0.856472   0.000000
   92  O  3 ZZ   -0.000000  -0.000000   0.000000   0.253347   0.000000
   93  O  3 XY   -0.000000  -0.000000   0.436390   0.000000   0.000000
   94  O  3 XZ   -0.000000  -1.514891  -0.000000   0.000000  -0.035108
   95  O  3 YZ    1.202339  -0.000000   0.000000  -0.000000   0.000000
   96  O  3 XXX  -0.000000  -0.133590  -0.000000   0.000000  -0.091789
   97  O  3 YYY  -0.009896  -0.000000   0.000000   0.000000   0.000000
   98  O  3 ZZZ  -0.000000  -0.000000   0.000000   0.166217   0.000000
   99  O  3 XXY   0.125506  -0.000000   0.000000  -0.000000   0.000000
  100  O  3 XXZ  -0.000000  -0.000000   0.000000   0.158217   0.000000
  101  O  3 YYX  -0.000000   0.104411   0.000000   0.000000   0.156215
  102  O  3 YYZ   0.000000  -0.000000   0.000000  -0.381221   0.000000
  103  O  3 ZZX  -0.000000   0.074818   0.000000   0.000000  -0.033068
  104  O  3 ZZY  -0.112228  -0.000000   0.000000  -0.000000   0.000000
  105  O  3 XYZ  -0.000000  -0.000000   0.013382   0.000000  -0.000000

                     31         32         33         34         35
                    0.6599     0.7146     0.7339     0.7370     0.7515
                     A          A          A          A          A   
    1  H  1  S   -0.072723   0.062628   0.065173   0.064490  -0.000000
    2  H  1  S   -0.261467   1.842716   0.036152   0.461854  -0.000000
    3  H  1  S    5.042263  -3.650855  -4.794169  -2.012598  -0.000000
    4  H  1  X   -0.000000  -0.000000   0.000000   0.000000  -0.006699
    5  H  1  Y   -0.005759   0.020195   0.019348   0.027757  -0.000000
    6  H  1  Z   -0.002692   0.008716   0.016890   0.009137  -0.000000
    7  H  1  X   -0.000000  -0.000000   0.000000   0.000000   0.012664
    8  H  1  Y    0.385360   0.075633  -0.185138  -0.061499  -0.000000
    9  H  1  Z    0.266147   0.059420  -0.317672   0.056095  -0.000000
   10  H  1 XX    0.003979   0.026701   0.001115  -0.020445  -0.000000
   11  H  1 YY    0.006983   0.007864   0.007571   0.009075  -0.000000
   12  H  1 ZZ   -0.010962  -0.034565  -0.008685   0.011370  -0.000000
   13  H  1 XY   -0.000000  -0.000000   0.000000   0.000000   0.003028
   14  H  1 XZ   -0.000000  -0.000000   0.000000   0.000000   0.026345
   15  H  1 YZ    0.018528   0.016743  -0.006288   0.001733  -0.000000
   16  H  1  S    1.026427  -0.238199  -0.625276  -0.162038  -0.000000
   17  H  1  X   -0.000000  -0.000000   0.000000   0.000000  -0.650594
   18  H  1  Y    0.438864  -1.871568  -2.973422  -1.266935  -0.000000
   19  H  1  Z    2.201761  -0.987155  -0.717129  -1.268872  -0.000000
   20  H  1 XX   -0.474587  -0.252131   0.591877   0.977239  -0.000000
   21  H  1 YY   -0.439675  -0.528037  -1.076097  -0.535957  -0.000000
   22  H  1 ZZ    0.914262   0.780167   0.484220  -0.441282  -0.000000
   23  H  1 XY   -0.000000  -0.000000   0.000000   0.000000  -0.515789
   24  H  1 XZ   -0.000000  -0.000000   0.000000   0.000000  -0.969335
   25  H  1 YZ    0.710130  -0.858540  -0.729857  -0.778674  -0.000000
   26  H  2  S    0.072723   0.062628  -0.065173   0.064490  -0.000000
   27  H  2  S    0.261467   1.842716  -0.036152   0.461854  -0.000000
   28  H  2  S   -5.042263  -3.650855   4.794169  -2.012598  -0.000000
   29  H  2  X   -0.000000  -0.000000   0.000000   0.000000  -0.006699
   30  H  2  Y   -0.005759  -0.020195   0.019348  -0.027757  -0.000000
   31  H  2  Z    0.002692   0.008716  -0.016890   0.009137  -0.000000
   32  H  2  X   -0.000000  -0.000000   0.000000   0.000000   0.012664
   33  H  2  Y    0.385360  -0.075633  -0.185138   0.061499  -0.000000
   34  H  2  Z   -0.266147   0.059420   0.317672   0.056095  -0.000000
   35  H  2 XX   -0.003979   0.026701  -0.001115  -0.020445  -0.000000
   36  H  2 YY   -0.006983   0.007864  -0.007571   0.009075  -0.000000
   37  H  2 ZZ    0.010962  -0.034565   0.008685   0.011370  -0.000000
   38  H  2 XY   -0.000000  -0.000000   0.000000   0.000000  -0.003028
   39  H  2 XZ   -0.000000  -0.000000   0.000000   0.000000   0.026345
   40  H  2 YZ    0.018528  -0.016743  -0.006288  -0.001733  -0.000000
   41  H  2  S   -1.026427  -0.238199   0.625276  -0.162038  -0.000000
   42  H  2  X   -0.000000  -0.000000   0.000000   0.000000  -0.650594
   43  H  2  Y    0.438864   1.871568  -2.973422   1.266935  -0.000000
   44  H  2  Z   -2.201761  -0.987155   0.717129  -1.268872  -0.000000
   45  H  2 XX    0.474587  -0.252131  -0.591877   0.977239  -0.000000
   46  H  2 YY    0.439675  -0.528037   1.076097  -0.535957  -0.000000
   47  H  2 ZZ   -0.914262   0.780167  -0.484220  -0.441282  -0.000000
   48  H  2 XY   -0.000000  -0.000000   0.000000   0.000000   0.515789
   49  H  2 XZ   -0.000000  -0.000000   0.000000   0.000000  -0.969335
   50  H  2 YZ    0.710130   0.858540  -0.729857   0.778674  -0.000000
   51  O  3  S    0.000000  -0.018093   0.000000  -0.023112  -0.000000
   52  O  3  S    0.000000  -0.194069   0.000000  -0.177789  -0.000000
   53  O  3  S    0.000000  -0.049744   0.000000  -0.051802  -0.000000
   54  O  3  S   -0.000000   2.917134  -0.000000   3.751933  -0.000000
   55  O  3  X   -0.000000  -0.000000   0.000000   0.000000   0.074360
   56  O  3  Y   -0.137443  -0.000000   0.157757   0.000000  -0.000000
   57  O  3  Z   -0.000000   0.049718   0.000000   0.006864  -0.000000
   58  O  3  X   -0.000000  -0.000000   0.000000   0.000000   0.256209
   59  O  3  Y   -0.127771  -0.000000  -0.001159  -0.000000  -0.000000
   60  O  3  Z   -0.000000  -0.032790   0.000000  -0.176848  -0.000000
   61  O  3  X   -0.000000  -0.000000   0.000000   0.000000   1.180485
   62  O  3  Y    2.742380  -0.000000  -1.285314  -0.000000  -0.000000
   63  O  3  Z    0.000000   0.448637  -0.000000   1.103014  -0.000000
   64  O  3 XX   -0.000000   0.012861   0.000000  -0.010329  -0.000000
   65  O  3 YY    0.000000   0.001254  -0.000000  -0.001337  -0.000000
   66  O  3 ZZ   -0.000000  -0.014114  -0.000000   0.011666  -0.000000
   67  O  3 XY   -0.000000  -0.000000   0.000000   0.000000  -0.000000
   68  O  3 XZ   -0.000000  -0.000000   0.000000   0.000000   0.019825
   69  O  3 YZ    0.006148  -0.000000  -0.005575  -0.000000  -0.000000
   70  O  3 XX    0.000000  -0.071492  -0.000000   0.008968  -0.000000
   71  O  3 YY   -0.000000   0.048933  -0.000000   0.070707  -0.000000
   72  O  3 ZZ    0.000000   0.022558   0.000000  -0.079674  -0.000000
   73  O  3 XY   -0.000000  -0.000000   0.000000   0.000000  -0.000000
   74  O  3 XZ   -0.000000  -0.000000   0.000000   0.000000  -0.079615
   75  O  3 YZ   -0.087063   0.000000   0.125755   0.000000  -0.000000
   76  O  3 XXX  -0.000000  -0.000000   0.000000   0.000000   0.014768
   77  O  3 YYY  -0.024042  -0.000000  -0.004467   0.000000  -0.000000
   78  O  3 ZZZ  -0.000000   0.000050  -0.000000   0.015423  -0.000000
   79  O  3 XXY   0.006101  -0.000000   0.009317   0.000000  -0.000000
   80  O  3 XXZ  -0.000000   0.013991   0.000000   0.003617  -0.000000
   81  O  3 YYX  -0.000000  -0.000000   0.000000   0.000000  -0.026984
   82  O  3 YYZ   0.000000  -0.014059   0.000000  -0.024309  -0.000000
   83  O  3 ZZX  -0.000000  -0.000000   0.000000   0.000000   0.007171
   84  O  3 ZZY   0.026154  -0.000000  -0.003324  -0.000000  -0.000000
   85  O  3 XYZ  -0.000000  -0.000000   0.000000   0.000000  -0.000000
   86  O  3  S   -0.000000   4.187739  -0.000000   1.921903  -0.000000
   87  O  3  X   -0.000000  -0.000000   0.000000   0.000000   0.511630
   88  O  3  Y    3.153660   0.000000  -0.266645  -0.000000  -0.000000
   89  O  3  Z    0.000000  -0.196442  -0.000000   0.397733  -0.000000
   90  O  3 XX   -0.000000   1.955369   0.000000  -0.143206  -0.000000
   91  O  3 YY    0.000000  -1.514146   0.000000  -0.342676  -0.000000
   92  O  3 ZZ   -0.000000  -0.441223  -0.000000   0.485882  -0.000000
   93  O  3 XY   -0.000000  -0.000000   0.000000   0.000000   0.000000
   94  O  3 XZ   -0.000000  -0.000000   0.000000   0.000000   0.663473
   95  O  3 YZ    1.094021   0.000000  -0.315879  -0.000000  -0.000000
   96  O  3 XXX  -0.000000  -0.000000   0.000000   0.000000  -0.095738
   97  O  3 YYY   0.223910  -0.000000   0.027539  -0.000000  -0.000000
   98  O  3 ZZZ  -0.000000  -0.045260   0.000000  -0.106400  -0.000000
   99  O  3 XXY  -0.088740   0.000000  -0.054018  -0.000000  -0.000000
  100  O  3 XXZ   0.000000  -0.096152   0.000000  -0.049029  -0.000000
  101  O  3 YYX  -0.000000  -0.000000   0.000000   0.000000   0.163316
  102  O  3 YYZ  -0.000000   0.156874  -0.000000   0.191779  -0.000000
  103  O  3 ZZX  -0.000000  -0.000000   0.000000   0.000000  -0.034870
  104  O  3 ZZY  -0.211667  -0.000000   0.017071   0.000000  -0.000000
  105  O  3 XYZ  -0.000000  -0.000000   0.000000   0.000000  -0.000000

                     36         37         38         39         40
                    0.7809     0.8080     0.8281     1.0536     1.1949
                     A          A          A          A          A   
    1  H  1  S    0.009235  -0.000000   0.003462   0.010049   0.000000
    2  H  1  S    0.450158  -0.000000  -0.007414   6.262785   0.000000
    3  H  1  S   -1.905247  -0.000000  -3.142270   5.003698   0.000000
    4  H  1  X    0.000000   0.000518  -0.000000  -0.000000  -0.074007
    5  H  1  Y   -0.007707  -0.000000  -0.017801  -0.021456   0.000000
    6  H  1  Z    0.012502  -0.000000   0.011025   0.029433   0.000000
    7  H  1  X    0.000000   0.132223  -0.000000  -0.000000   1.898151
    8  H  1  Y   -0.102834  -0.000000  -0.216915   2.325670   0.000000
    9  H  1  Z   -0.326395  -0.000000  -0.597792  -0.233337   0.000000
   10  H  1 XX    0.016395  -0.000000   0.000069  -0.060489   0.000000
   11  H  1 YY   -0.035644  -0.000000   0.003118   0.094767   0.000000
   12  H  1 ZZ    0.019249  -0.000000  -0.003187  -0.034277   0.000000
   13  H  1 XY    0.000000  -0.020579  -0.000000  -0.000000   0.025746
   14  H  1 XZ    0.000000   0.016756  -0.000000  -0.000000  -0.005807
   15  H  1 YZ   -0.004512  -0.000000  -0.063878   0.024093   0.000000
   16  H  1  S   -0.107864  -0.000000  -0.167911   0.537227   0.000000
   17  H  1  X    0.000000   0.644759  -0.000000  -0.000000   1.025544
   18  H  1  Y   -0.217533  -0.000000  -1.612620   1.137369   0.000000
   19  H  1  Z   -0.561957  -0.000000   0.080008   0.001522   0.000000
   20  H  1 XX   -0.165062  -0.000000   0.459491   0.520513   0.000000
   21  H  1 YY    0.816749  -0.000000  -0.389482   0.252564   0.000000
   22  H  1 ZZ   -0.651687  -0.000000  -0.070009  -0.773077   0.000000
   23  H  1 XY    0.000000   1.209533  -0.000000  -0.000000   0.816913
   24  H  1 XZ    0.000000  -0.083629  -0.000000  -0.000000   0.886936
   25  H  1 YZ   -0.594778  -0.000000   0.728999  -0.438911   0.000000
   26  H  2  S    0.009235  -0.000000  -0.003462  -0.010049   0.000000
   27  H  2  S    0.450158  -0.000000   0.007414  -6.262785   0.000000
   28  H  2  S   -1.905247  -0.000000   3.142270  -5.003698   0.000000
   29  H  2  X    0.000000  -0.000518  -0.000000  -0.000000   0.074007
   30  H  2  Y    0.007707  -0.000000  -0.017801  -0.021456   0.000000
   31  H  2  Z    0.012502  -0.000000  -0.011025  -0.029433   0.000000
   32  H  2  X    0.000000  -0.132223  -0.000000  -0.000000  -1.898151
   33  H  2  Y    0.102834  -0.000000  -0.216915   2.325670   0.000000
   34  H  2  Z   -0.326395  -0.000000   0.597792   0.233337   0.000000
   35  H  2 XX    0.016395  -0.000000  -0.000069   0.060489   0.000000
   36  H  2 YY   -0.035644  -0.000000  -0.003118  -0.094767   0.000000
   37  H  2 ZZ    0.019249  -0.000000   0.003187   0.034277   0.000000
   38  H  2 XY    0.000000  -0.020579  -0.000000  -0.000000   0.025746
   39  H  2 XZ    0.000000  -0.016756  -0.000000  -0.000000   0.005807
   40  H  2 YZ    0.004512  -0.000000  -0.063878   0.024093   0.000000
   41  H  2  S   -0.107864  -0.000000   0.167911  -0.537227   0.000000
   42  H  2  X    0.000000  -0.644759  -0.000000  -0.000000  -1.025544
   43  H  2  Y    0.217533  -0.000000  -1.612620   1.137369   0.000000
   44  H  2  Z   -0.561957  -0.000000  -0.080008  -0.001522   0.000000
   45  H  2 XX   -0.165062  -0.000000  -0.459491  -0.520513   0.000000
   46  H  2 YY    0.816749  -0.000000   0.389482  -0.252564   0.000000
   47  H  2 ZZ   -0.651687  -0.000000   0.070009   0.773077   0.000000
   48  H  2 XY    0.000000   1.209533  -0.000000  -0.000000   0.816913
[...]
   90  O  3 XX   -0.013420  -0.000000  -0.055544  -0.000000   0.020483
   91  O  3 YY    0.013573   0.000000   0.019961   0.000000  -0.022643
   92  O  3 ZZ   -0.000153  -0.000000   0.035583   0.000000   0.002160
   93  O  3 XY    0.000000   0.000000   0.000000   0.000000  -0.000000
   94  O  3 XZ    0.000000   0.000000  -0.000000   0.091940  -0.000000
   95  O  3 YZ   -0.000000  -0.018954  -0.000000  -0.000000   0.000000
   96  O  3 XXX   0.000000   0.000000   0.000000   0.002089  -0.000000
   97  O  3 YYY   0.000000  -0.000101  -0.000000   0.000000   0.000000
   98  O  3 ZZZ  -0.000116   0.000000  -0.001944   0.000000  -0.006978
   99  O  3 XXY  -0.000000  -0.001563  -0.000000  -0.000000   0.000000
  100  O  3 XXZ   0.000750   0.000000  -0.002348   0.000000  -0.010617
  101  O  3 YYX   0.000000   0.000000   0.000000  -0.000264   0.000000
  102  O  3 YYZ  -0.000594  -0.000000   0.004956  -0.000000   0.019980
  103  O  3 ZZX   0.000000   0.000000   0.000000  -0.002539   0.000000
  104  O  3 ZZY   0.000000   0.001698   0.000000  -0.000000  -0.000000
  105  O  3 XYZ  -0.000000   0.000000   0.000000  -0.000000   0.000000

                     11         12         13         14         15
                   -0.0273     0.0104     0.0180     0.0366     0.0697
                     A          A          A          A          A   
    1  H  1  S    0.067963   0.030591   0.032934   0.000000  -0.000000
    2  H  1  S    0.064830   0.758036   0.369667   0.000000   0.000000
    3  H  1  S   -0.806527   2.559562   1.768026   0.000000   0.000000
    4  H  1  X    0.000000   0.000000   0.000000   0.001949   0.001102
    5  H  1  Y   -0.005121   0.005308   0.004123   0.000000   0.000000
    6  H  1  Z   -0.007752  -0.002432  -0.000126   0.000000   0.000000
    7  H  1  X    0.000000  -0.000000  -0.000000   0.190400  -0.222607
    8  H  1  Y   -0.085497   0.165241  -0.026266   0.000000   0.000000
    9  H  1  Z   -0.105583   0.094884   0.216202   0.000000   0.000000
   10  H  1 XX    0.003100  -0.006791  -0.000980   0.000000  -0.000000
   11  H  1 YY   -0.001920   0.007811   0.000974   0.000000   0.000000
   12  H  1 ZZ   -0.001180  -0.001020   0.000006   0.000000   0.000000
   13  H  1 XY    0.000000  -0.000000   0.000000   0.002142  -0.002724
   14  H  1 XZ    0.000000  -0.000000   0.000000   0.000394  -0.003839
   15  H  1 YZ   -0.004932   0.008461   0.010819   0.000000   0.000000
   16  H  1  S   -2.584577   2.715276   0.383263  -0.000000  -0.000000
   17  H  1  X    0.000000  -0.000000  -0.000000   1.480128  -1.727961
   18  H  1  Y   -0.664252   0.125963  -0.439331   0.000000   0.000000
   19  H  1  Z   -0.728712   0.054121   0.949645  -0.000000   0.000000
   20  H  1 XX    0.053269   0.058559  -0.014338   0.000000   0.000000
   21  H  1 YY   -0.018818  -0.046857  -0.130054   0.000000   0.000000
   22  H  1 ZZ   -0.034451  -0.011703   0.144391   0.000000  -0.000000
   23  H  1 XY    0.000000  -0.000000  -0.000000   0.169097  -0.248952
   24  H  1 XZ    0.000000  -0.000000  -0.000000   0.150224  -0.103930
   25  H  1 YZ   -0.076024  -0.013671   0.044743  -0.000000   0.000000
   26  H  2  S   -0.067963  -0.030591   0.032934   0.000000   0.000000
   27  H  2  S   -0.064830  -0.758037   0.369667   0.000000  -0.000000
   28  H  2  S    0.806527  -2.559563   1.768026   0.000000  -0.000000
   29  H  2  X    0.000000   0.000000   0.000000  -0.001949   0.001102
   30  H  2  Y   -0.005121   0.005308  -0.004123  -0.000000   0.000000
   31  H  2  Z    0.007752   0.002432  -0.000126   0.000000   0.000000
   32  H  2  X    0.000000  -0.000000  -0.000000  -0.190400  -0.222607
   33  H  2  Y   -0.085497   0.165241   0.026266  -0.000000  -0.000000
   34  H  2  Z    0.105583  -0.094884   0.216202   0.000000  -0.000000
   35  H  2 XX   -0.003100   0.006791  -0.000980  -0.000000   0.000000
   36  H  2 YY    0.001920  -0.007811   0.000974   0.000000  -0.000000
   37  H  2 ZZ    0.001180   0.001020   0.000006   0.000000   0.000000
   38  H  2 XY    0.000000   0.000000   0.000000   0.002142   0.002724
   39  H  2 XZ    0.000000   0.000000   0.000000  -0.000394  -0.003839
   40  H  2 YZ   -0.004931   0.008461  -0.010819  -0.000000   0.000000
   41  H  2  S    2.584577  -2.715276   0.383263   0.000000   0.000000
   42  H  2  X    0.000000  -0.000000  -0.000000  -1.480128  -1.727961
   43  H  2  Y   -0.664252   0.125963   0.439331  -0.000000   0.000000
   44  H  2  Z    0.728712  -0.054121   0.949645   0.000000  -0.000000
   45  H  2 XX   -0.053269  -0.058559  -0.014338   0.000000  -0.000000
   46  H  2 YY    0.018818   0.046857  -0.130054   0.000000   0.000000
   47  H  2 ZZ    0.034451   0.011703   0.144391   0.000000  -0.000000
   48  H  2 XY   -0.000000   0.000000   0.000000   0.169097   0.248952
   49  H  2 XZ    0.000000  -0.000000  -0.000000  -0.150224  -0.103930
   50  H  2 YZ   -0.076024  -0.013671  -0.044743   0.000000   0.000000
   51  O  3  S   -0.000000  -0.000000   0.013655   0.000000   0.000000
   52  O  3  S    0.000000  -0.000000   0.059525   0.000000   0.000000
   53  O  3  S   -0.000000  -0.000000   0.023844   0.000000   0.000000
   54  O  3  S    0.000000   0.000000  -0.463854  -0.000000  -0.000000
   55  O  3  X    0.000000   0.000000   0.000000  -0.000000   0.058121
   56  O  3  Y    0.131659  -0.029866  -0.000000   0.000000   0.000000
   57  O  3  Z   -0.000000  -0.000000   0.010772   0.000000   0.000000
   58  O  3  X    0.000000   0.000000   0.000000   0.000000   0.031238
   59  O  3  Y    0.127423  -0.005754  -0.000000  -0.000000   0.000000
   60  O  3  Z   -0.000000  -0.000000   0.036684   0.000000   0.000000
   61  O  3  X   -0.000000   0.000000   0.000000  -0.000000   1.339273
   62  O  3  Y   -0.151773   1.096289   0.000000  -0.000000   0.000000
   63  O  3  Z   -0.000000   0.000000  -0.128449   0.000000   0.000000
   64  O  3 XX    0.000000   0.000000  -0.003084   0.000000   0.000000
   65  O  3 YY   -0.000000  -0.000000   0.008188   0.000000   0.000000
   66  O  3 ZZ   -0.000000   0.000000  -0.005104   0.000000   0.000000
   67  O  3 XY    0.000000   0.000000   0.000000  -0.006683  -0.000000
   68  O  3 XZ    0.000000   0.000000   0.000000   0.000000   0.007281
   69  O  3 YZ    0.004770   0.007456   0.000000   0.000000   0.000000
   70  O  3 XX   -0.000000  -0.000000   0.012779   0.000000   0.000000
   71  O  3 YY    0.000000   0.000000  -0.009547  -0.000000  -0.000000
   72  O  3 ZZ    0.000000  -0.000000  -0.003232   0.000000   0.000000
   73  O  3 XY    0.000000  -0.000000   0.000000  -0.007252   0.000000
   74  O  3 XZ    0.000000  -0.000000   0.000000  -0.000000  -0.006356
   75  O  3 YZ    0.048868  -0.026469   0.000000   0.000000  -0.000000
   76  O  3 XXX   0.000000   0.000000   0.000000  -0.000000   0.008232
   77  O  3 YYY   0.001742   0.000108  -0.000000   0.000000   0.000000
   78  O  3 ZZZ   0.000000  -0.000000   0.003274   0.000000   0.000000
   79  O  3 XXY   0.002228   0.002855   0.000000   0.000000   0.000000
   80  O  3 XXZ  -0.000000   0.000000  -0.001718   0.000000   0.000000
   81  O  3 YYX   0.000000   0.000000   0.000000  -0.000000  -0.005594
   82  O  3 YYZ  -0.000000   0.000000  -0.002674   0.000000   0.000000
   83  O  3 ZZX   0.000000   0.000000   0.000000   0.000000  -0.005451
   84  O  3 ZZY  -0.004564  -0.003000  -0.000000   0.000000   0.000000
   85  O  3 XYZ   0.000000   0.000000   0.000000   0.008453   0.000000
   86  O  3  S    0.000000   0.000000  -4.086624  -0.000000  -0.000000
   87  O  3  X   -0.000000   0.000000   0.000000  -0.000000   2.104187
   88  O  3  Y   -0.699942   3.130708   0.000000  -0.000000   0.000000
   89  O  3  Z   -0.000000   0.000000  -0.458783   0.000000   0.000000
   90  O  3 XX   -0.000000  -0.000000   0.124041   0.000000   0.000000
   91  O  3 YY   -0.000000   0.000000  -0.489019  -0.000000  -0.000000
   92  O  3 ZZ    0.000000  -0.000000   0.364978  -0.000000  -0.000000
   93  O  3 XY    0.000000  -0.000000   0.000000   0.441351  -0.000000
   94  O  3 XZ    0.000000  -0.000000  -0.000000   0.000000  -0.345700
   95  O  3 YZ   -0.017972  -0.509649  -0.000000   0.000000  -0.000000
   96  O  3 XXX   0.000000  -0.000000  -0.000000   0.000000  -0.061443
   97  O  3 YYY  -0.008700   0.001794   0.000000   0.000000   0.000000
   98  O  3 ZZZ  -0.000000   0.000000  -0.035228   0.000000  -0.000000
   99  O  3 XXY   0.002808  -0.035425  -0.000000   0.000000  -0.000000
  100  O  3 XXZ   0.000000  -0.000000   0.003303   0.000000  -0.000000
  101  O  3 YYX  -0.000000   0.000000   0.000000   0.000000   0.054200
  102  O  3 YYZ  -0.000000  -0.000000   0.043960   0.000000   0.000000
  103  O  3 ZZX   0.000000   0.000000   0.000000  -0.000000   0.028234
  104  O  3 ZZY   0.008864   0.033019  -0.000000   0.000000   0.000000
  105  O  3 XYZ   0.000000   0.000000   0.000000  -0.058334  -0.000000

     -------------------------------------------------
     MP2 PROPERTIES...FOR THE FIRST ORDER WAVEFUNCTION
          USING THE RESPONSE (OR RELAXED) DENSITY
     -------------------------------------------------

          -----------------
          ENERGY COMPONENTS
          -----------------

         WAVEFUNCTION NORMALIZATION =       1.0000000000

                ONE ELECTRON ENERGY =    -117.3563593396
                TWO ELECTRON ENERGY =      32.7007407985
           NUCLEAR REPULSION ENERGY =       8.7965082159
                                      ------------------
                       TOTAL ENERGY =     -75.8591103252

 ELECTRON-ELECTRON POTENTIAL ENERGY =      32.7007407985
  NUCLEUS-ELECTRON POTENTIAL ENERGY =    -193.1437909398
   NUCLEUS-NUCLEUS POTENTIAL ENERGY =       8.7965082159
                                      ------------------
             TOTAL POTENTIAL ENERGY =    -151.6465419254
               TOTAL KINETIC ENERGY =      75.7874316002
                 VIRIAL RATIO (V/T) =       2.0009457864

          ---------------------------------------
          MULLIKEN AND LOWDIN POPULATION ANALYSES
          ---------------------------------------

          MULLIKEN SPHERICAL HARMONIC POPULATIONS
       ATOM           S       P       D      F      G      H      I    TOTAL
    1 H             0.26    0.03    0.01   0.00   0.00   0.00   0.00    0.30
    2 H             0.26    0.03    0.01   0.00   0.00   0.00   0.00    0.30
    3 O             1.96    1.93    0.02   0.00   0.00   0.00   0.00    3.90

          MULLIKEN SPHERICAL HARMONIC POPULATIONS
       ATOM           S       P       D      F      G      H      I    TOTAL
    1 H             0.26    0.03    0.01   0.00   0.00   0.00   0.00    0.30
    2 H             0.26    0.03    0.01   0.00   0.00   0.00   0.00    0.30
    3 O             1.96    1.93    0.02   0.00   0.00   0.00   0.00    3.90

     ATOMIC SPIN POPULATION (ALPHA MINUS BETA)
       ATOM         MULL.POP.                    LOW.POP.
    1 H             0.000000                     0.000000
    2 H             0.000000                     0.000000
    3 O             0.000000                     0.000000

               ----- POPULATIONS IN EACH AO -----
                             MULLIKEN      LOWDIN
              1  H  1  S      0.21228     0.14608
              2  H  1  S      0.33505     0.12939
              3  H  1  S     -0.03357     0.03983
              4  H  1  X      0.00186     0.00279
              5  H  1  Y      0.00968     0.01866
              6  H  1  Z      0.00617     0.01338
              7  H  1  X      0.01078     0.02178
              8  H  1  Y      0.02098     0.06273
              9  H  1  Z      0.01369     0.06243
             10  H  1 XX      0.00129     0.03507
             11  H  1 YY      0.00120     0.08677
             12  H  1 ZZ      0.00093     0.06204
             13  H  1 XY      0.00048     0.00518
             14  H  1 XZ      0.00208     0.00249
             15  H  1 YZ      0.00000     0.01862
             16  H  1  S     -0.00115     0.00437
             17  H  1  X      0.00036     0.01157
             18  H  1  Y      0.00324     0.03822
             19  H  1  Z     -0.00146     0.03642
             20  H  1 XX      0.00341     0.00557
             21  H  1 YY      0.00227     0.05508
             22  H  1 ZZ      0.00279     0.03128
             23  H  1 XY      0.00129     0.01836
             24  H  1 XZ      0.00201     0.00903
             25  H  1 YZ      0.00000     0.04892
             26  H  2  S      0.21228     0.14608
             27  H  2  S      0.33505     0.12939
             28  H  2  S     -0.03357     0.03983
             29  H  2  X      0.00186     0.00279
             30  H  2  Y      0.00968     0.01866
             31  H  2  Z      0.00617     0.01338
             32  H  2  X      0.01078     0.02178
             33  H  2  Y      0.02098     0.06273
             34  H  2  Z      0.01369     0.06243
             35  H  2 XX      0.00129     0.03507
             36  H  2 YY      0.00120     0.08677
             37  H  2 ZZ      0.00093     0.06204
             38  H  2 XY      0.00048     0.00518
             39  H  2 XZ      0.00208     0.00249
             40  H  2 YZ      0.00000     0.01862
             41  H  2  S     -0.00115     0.00437
             42  H  2  X      0.00036     0.01157
             43  H  2  Y      0.00324     0.03822
             44  H  2  Z     -0.00146     0.03642
             45  H  2 XX      0.00341     0.00557
             46  H  2 YY      0.00227     0.05508
             47  H  2 ZZ      0.00279     0.03128
             48  H  2 XY      0.00129     0.01836
             49  H  2 XZ      0.00201     0.00903
             50  H  2 YZ      0.00000     0.04892
             51  O  3  S      1.94894     1.55354
             52  O  3  S      1.05554     0.51524
             53  O  3  S      0.25642     0.34643
             54  O  3  S      0.60115     0.16698
             55  O  3  X      0.30618     0.28094
             56  O  3  Y      0.41864     0.35806
             57  O  3  Z      0.49690     0.44284
             58  O  3  X      0.47619     0.19272
             59  O  3  Y      0.68399     0.28975
             60  O  3  Z      0.78324     0.33777
             61  O  3  X      0.17901     0.06858
             62  O  3  Y      0.22756     0.14168
             63  O  3  Z      0.27047     0.15168
             64  O  3 XX      0.00184     0.12254
             65  O  3 YY      0.00180     0.12014
             66  O  3 ZZ      0.00131     0.11927
             67  O  3 XY      0.00157     0.00135
             68  O  3 XZ      0.00332     0.00158
             69  O  3 YZ      0.00000     0.00253
             70  O  3 XX      0.00488     0.07713
             71  O  3 YY      0.00419     0.09081
             72  O  3 ZZ      0.00247     0.08302
             73  O  3 XY      0.00334     0.00183
             74  O  3 XZ      0.01353     0.00212
             75  O  3 YZ      0.00000     0.01868
             76  O  3 XXX     0.00024     0.12358
             77  O  3 YYY     0.00053     0.17432
             78  O  3 ZZZ     0.00028     0.20065
             79  O  3 XXY     0.00041     0.07117
             80  O  3 XXZ     0.00032     0.08892
             81  O  3 YYX     0.00031     0.05127
             82  O  3 YYZ     0.00034     0.10460
             83  O  3 ZZX     0.00000     0.05118
             84  O  3 ZZY     0.00000     0.08527
             85  O  3 XYZ     0.00000     0.00028
             86  O  3  S      0.05212     0.03365
             87  O  3  X      0.00057     0.00587
             88  O  3  Y      0.00696     0.01571
             89  O  3  Z      0.00274     0.01727
             90  O  3 XX      0.00081     0.00553
             91  O  3 YY     -0.00144     0.01530
             92  O  3 ZZ      0.00012     0.00933
             93  O  3 XY      0.00051     0.00029
             94  O  3 XZ      0.00036     0.00033
             95  O  3 YZ      0.00000     0.01361
             96  O  3 XXX     0.00004     0.04746
             97  O  3 YYY    -0.00003     0.11129
             98  O  3 ZZZ     0.00012     0.10159
             99  O  3 XXY     0.00019     0.03433
            100  O  3 XXZ     0.00041     0.04210
            101  O  3 YYX     0.00011     0.01854
            102  O  3 YYZ     0.00018     0.07314
            103  O  3 ZZX     0.00000     0.01890
            104  O  3 ZZY     0.00000     0.06496
            105  O  3 XYZ     0.00000     0.00015

          ----- MULLIKEN ATOMIC OVERLAP POPULATIONS -----
          (OFF-DIAGONAL ELEMENTS NEED TO BE MULTIPLIED BY 2)

             1           2           3

    1    0.3999733
    2    0.0365992   0.3999733
    3    0.1590929   0.1590930   7.4904832

          TOTAL MULLIKEN AND LOWDIN ATOMIC POPULATIONS
       ATOM         MULL.POP.    CHARGE          LOW.POP.     CHARGE
    1 H             0.595665    0.404335         0.966068    0.033932
    2 H             0.595665    0.404335         0.966068    0.033932
    3 O             7.808669    0.191331         7.067863    0.932137

          MULLIKEN SPHERICAL HARMONIC POPULATIONS
       ATOM           S       P       D      F      G      H      I    TOTAL
    1 H             0.51    0.07    0.02   0.00   0.00   0.00   0.00    0.60
    2 H             0.51    0.07    0.02   0.00   0.00   0.00   0.00    0.60
    3 O             3.91    3.85    0.04   0.00   0.00   0.00   0.00    7.81

          -------------------------------
          BOND ORDER AND VALENCE ANALYSIS     BOND ORDER THRESHOLD=0.050
          -------------------------------

                   BOND                       BOND                       BOND
  ATOM PAIR DIST  ORDER      ATOM PAIR DIST  ORDER      ATOM PAIR DIST  ORDER
    1   3  0.999  0.767        2   3  0.999  0.767

                       TOTAL       BONDED        FREE
      ATOM            VALENCE     VALENCE     VALENCE
    1 H                 0.862       0.801       0.061
    2 H                 0.862       0.801       0.061
    3 O                 2.721       1.534       1.187

          ---------------------
          ELECTROSTATIC MOMENTS
          ---------------------

 POINT   1           X           Y           Z (BOHR)    CHARGE
                 0.000000    0.000000    0.921115        1.00 (A.U.)
         DX          DY          DZ         /D/  (DEBYE)
    -0.000000   -0.000000   -2.374594    2.374594
 ...... END OF PROPERTY EVALUATION ......
 CPU     0: STEP CPU TIME=     0.04 TOTAL CPU TIME=      169.6 (    2.8 MIN)
 TOTAL WALL CLOCK TIME=      171.2 SECONDS, CPU UTILIZATION IS  99.07%
  $VIB   
          IVIB=   0 IATOM=   0 ICOORD=   0 E=      -75.8591103252
  0.000000000E+00 0.000000000E+00 0.000000000E+00 0.000000000E+00 0.000000000E+00
  0.000000000E+00 0.000000000E+00 0.000000000E+00 0.000000000E+00
 -6.784657702E-11-1.663052449E-09-2.374593895E+00
 ......END OF GEOMETRY SEARCH......
 CPU     0: STEP CPU TIME=     0.00 TOTAL CPU TIME=      169.6 (    2.8 MIN)
 TOTAL WALL CLOCK TIME=      171.2 SECONDS, CPU UTILIZATION IS  99.07%
               692116  WORDS OF DYNAMIC MEMORY USED
 EXECUTION OF GAMESS TERMINATED NORMALLY Tue Mar  8 19:12:27 2016
 DDI: 1440608 bytes (1.4 MB / 0 MWords) used by master data server.

 ----------------------------------------
 CPU timing information for all processes
 ========================================
 0: 167.859 + 1.779 = 169.638
 1: 168.66 + 1.712 = 169.778
 ----------------------------------------
 ddikick.x: exited gracefully.
----- accounting info -----
Files used on the master node Clevo were:
-rw-r--r-- 1 sagar sagar   634996 Mar  8 19:12 /tmp/H2O_ion_ROHF_MP2_augccpVTZ_geometry.dat
-rw-r--r-- 1 sagar sagar      211 Mar  8 19:09 /tmp/H2O_ion_ROHF_MP2_augccpVTZ_geometry.F05
-rw-r--r-- 1 sagar sagar 43743888 Mar  8 19:12 /tmp/H2O_ion_ROHF_MP2_augccpVTZ_geometry.F08
-rw-r--r-- 1 sagar sagar 43743888 Mar  8 19:12 /tmp/H2O_ion_ROHF_MP2_augccpVTZ_geometry.F08.001
-rw-r--r-- 1 sagar sagar  3108400 Mar  8 19:12 /tmp/H2O_ion_ROHF_MP2_augccpVTZ_geometry.F10
Tue Mar  8 19:12:30 WET 2016
0.077u 0.060s 2:54.34 0.0%	0+0k 0+16io 0pf+0w
