----- GAMESS execution script 'rungms' -----
This job is running on host Clevo
under operating system Linux at Tue Mar 8 19:16:22 WET 2016
Available scratch disk space (Kbyte units) at beginning of the job is
Filesystem                                             1K-blocks     Used Available Use% Mounted on
/dev/disk/by-uuid/c2905ecd-da6a-4deb-abcc-9980c215dfc9  34319120 18844004  13708716  58% /
GAMESS temporary binary files will be written to /tmp
GAMESS supplementary output files will be written to .
Copying input file H2O_ion_ROHF_CCSD_augccpVTZ_geometry.inp to your run's scratch directory...

 Distributed Data Interface kickoff program.
 Initiating 1 compute processes on 1 nodes to run the following command:
 /home/sagar/gamess/gamess.01.x H2O_ion_ROHF_CCSD_augccpVTZ_geometry 

          ******************************************************
          *         GAMESS VERSION =  5 DEC 2014 (R1)          *
          *             FROM IOWA STATE UNIVERSITY             *
          * M.W.SCHMIDT, K.K.BALDRIDGE, J.A.BOATZ, S.T.ELBERT, *
          *   M.S.GORDON, J.H.JENSEN, S.KOSEKI, N.MATSUNAGA,   *
          *          K.A.NGUYEN, S.J.SU, T.L.WINDUS,           *
          *       TOGETHER WITH M.DUPUIS, J.A.MONTGOMERY       *
          *         J.COMPUT.CHEM.  14, 1347-1363(1993)        *
          **************** 64 BIT LINUX VERSION ****************

  SINCE 1993, STUDENTS AND POSTDOCS WORKING AT IOWA STATE UNIVERSITY
  AND ALSO IN THEIR VARIOUS JOBS AFTER LEAVING ISU HAVE MADE IMPORTANT
  CONTRIBUTIONS TO THE CODE:
     IVANA ADAMOVIC, CHRISTINE AIKENS, YURI ALEXEEV, POOJA ARORA,
     ANDREY ASADCHEV, ROB BELL, PRADIPTA BANDYOPADHYAY, JONATHAN BENTZ,
     BRETT BODE, KURT BRORSEN, CALEB CARLIN, GALINA CHABAN, WEI CHEN,
     CHEOL HO CHOI, PAUL DAY, ALBERT DEFUSCO, NUWAN DESILVA, TIM DUDLEY,
     DMITRI FEDOROV, GRAHAM FLETCHER, MARK FREITAG, KURT GLAESEMANN,
     DAN KEMP, GRANT MERRILL, NORIYUKI MINEZAWA, JONATHAN MULLIN,
     TAKESHI NAGATA, SEAN NEDD, HEATHER NETZLOFF, BOSILJKA NJEGIC, RYAN OLSON,
     MIKE PAK, SPENCER PRUITT, LUKE ROSKOP, JIM SHOEMAKER, LYUDMILA SLIPCHENKO,
     TONY SMITH, SAROM SOK, JIE SONG, TETSUYA TAKETSUGU, SIMON WEBB,
     PENG XU, SOOHAENG YOO, FEDERICO ZAHARIEV

  ADDITIONAL CODE HAS BEEN PROVIDED BY COLLABORATORS IN OTHER GROUPS:
     IOWA STATE UNIVERSITY:
          JOE IVANIC, AARON WEST, LAIMUTIS BYTAUTAS, KLAUS RUEDENBERG
     UNIVERSITY OF TOKYO: KIMIHIKO HIRAO, TAKAHITO NAKAJIMA,
          TAKAO TSUNEDA, MUNEAKI KAMIYA, SUSUMU YANAGISAWA,
          KIYOSHI YAGI, MAHITO CHIBA, SEIKEN TOKURA, NAOAKI KAWAKAMI
     UNIVERSITY OF AARHUS: FRANK JENSEN
     UNIVERSITY OF IOWA: VISVALDAS KAIRYS, HUI LI
     NATIONAL INST. OF STANDARDS AND TECHNOLOGY: WALT STEVENS, DAVID GARMER
     UNIVERSITY OF PISA: BENEDETTA MENNUCCI, JACOPO TOMASI
     UNIVERSITY OF MEMPHIS: HENRY KURTZ, PRAKASHAN KORAMBATH
     UNIVERSITY OF ALBERTA: TOBY ZENG, MARIUSZ KLOBUKOWSKI
     UNIVERSITY OF NEW ENGLAND: MARK SPACKMAN
     MIE UNIVERSITY: HIROAKI UMEDA
     NAT. INST. OF ADVANCED INDUSTRIAL SCIENCE AND TECHNOLOGY: KAZUO KITAURA
     MICHIGAN STATE UNIVERSITY:
          KAROL KOWALSKI, MARTA WLOCH, JEFFREY GOUR, JESSE LUTZ,
          WEI LI, PIOTR PIECUCH
     UNIVERSITY OF SILESIA: MONIKA MUSIAL, STANISLAW KUCHARSKI
     FACULTES UNIVERSITAIRES NOTRE-DAME DE LA PAIX:
          OLIVIER QUINET, BENOIT CHAMPAGNE
     UNIVERSITY OF CALIFORNIA - SANTA BARBARA: BERNARD KIRTMAN
     INSTITUTE FOR MOLECULAR SCIENCE:
          KAZUYA ISHIMURA, MICHIO KATOUDA, AND SHIGERU NAGASE
     UNIVERSITY OF NOTRE DAME: ANNA POMOGAEVA, DAN CHIPMAN
     KYUSHU UNIVERSITY:
          HARUYUKI NAKANO,
          FENG LONG GU, JACEK KORCHOWIEC, MARCIN MAKOWSKI, AND YURIKO AOKI,
          HIROTOSHI MORI AND EISAKU MIYOSHI
     PENNSYLVANIA STATE UNIVERSITY:
          TZVETELIN IORDANOV, CHET SWALINA, JONATHAN SKONE,
          SHARON HAMMES-SCHIFFER
     WASEDA UNIVERSITY:
          MASATO KOBAYASHI, TOMOKO AKAMA, TSUGUKI TOUMA,
          TAKESHI YOSHIKAWA, YASUHIRO IKABATA, HIROMI NAKAI
     NANJING UNIVERSITY: SHUHUA LI
     UNIVERSITY OF NEBRASKA:
          PEIFENG SU, DEJUN SI, NANDUN THELLAMUREGE, YALI WANG, HUI LI
     UNIVERSITY OF ZURICH: ROBERTO PEVERATI, KIM BALDRIDGE
     N. COPERNICUS UNIVERSITY AND JACKSON STATE UNIVERSITY:
          MARIA BARYSZ
     UNIVERSITY OF COPENHAGEN: CASPER STEINMANN
     TOKYO INSTITUTE OF TECHNOLOGY: HIROYA NAKATA
     NAGOYA UNIVERSITY: YOSHIO NISHIMOTO, STEPHAN IRLE

 EXECUTION OF GAMESS BEGUN Tue Mar  8 19:16:22 2016

            ECHO OF THE FIRST FEW INPUT CARDS -
 INPUT CARD> $CONTRL SCFTYP=ROHF CCTYP=CCSD RUNTYP=OPTIMIZE ISPHER=1                        
 INPUT CARD>    ICHARG=1 MULT=2 NUMGRD=.T. $END                                             
 INPUT CARD> $SYSTEM MWORDS=32 MEMDDI=64 $END                                               
 INPUT CARD> $BASIS GBASIS=ACCT $END                                                        
 INPUT CARD> $DATA                                                                          
 INPUT CARD>H2O                                                                             
 INPUT CARD>Cnv 2                                                                           
 INPUT CARD>                                                                                
 INPUT CARD> O 8.0 0 0 0.5                                                                  
 INPUT CARD> H 1.0 0 1.0 0                                                                  
 INPUT CARD> $END                                                                           
   32000000 WORDS OF MEMORY AVAILABLE

     BASIS OPTIONS
     -------------
     GBASIS=ACCT         IGAUSS=       0      POLAR=NONE    
     NDFUNC=       0     NFFUNC=       0     DIFFSP=       F
     NPFUNC=       0      DIFFS=       F     BASNAM=        


     RUN TITLE
     ---------
 H2O                                                                             

 THE POINT GROUP OF THE MOLECULE IS CNV     
 THE ORDER OF THE PRINCIPAL AXIS IS     2

 ATOM      ATOMIC                      COORDINATES (BOHR)
           CHARGE         X                   Y                   Z
 O           8.0     0.0000000000        0.0000000000        0.9448629939
 H           1.0    -0.0000000000       -1.8897259877        0.0000000000
 H           1.0     0.0000000000        1.8897259877        0.0000000000

          INTERNUCLEAR DISTANCES (ANGS.)
          ------------------------------

                1 O          2 H          3 H     

   1 O       0.0000000    1.1180340 *  1.1180340 *
   2 H       1.1180340 *  0.0000000    2.0000000 *
   3 H       1.1180340 *  2.0000000 *  0.0000000  

  * ... LESS THAN  3.000


     ATOMIC BASIS SET
     ----------------
 THE CONTRACTED PRIMITIVE FUNCTIONS HAVE BEEN UNNORMALIZED
 THE CONTRACTED BASIS FUNCTIONS ARE NOW NORMALIZED TO UNITY

  SHELL TYPE  PRIMITIVE        EXPONENT          CONTRACTION COEFFICIENT(S)

 O         

      1   S       1         15330.0000000    0.000520198307
      1   S       2          2299.0000000    0.004023344781
      1   S       3           522.4000000    0.020729083329
      1   S       4           147.3000000    0.081082327080
      1   S       5            47.5500000    0.236226352118
      1   S       6            16.7600000    0.443518209420
      1   S       7             6.2070000    0.358670588689
      1   S       8             0.6882000   -0.008349797237

      2   S       9         15330.0000000   -0.000197236012
      2   S      10          2299.0000000   -0.001535010700
      2   S      11           522.4000000   -0.007951183914
      2   S      12           147.3000000   -0.032113452892
      2   S      13            47.5500000   -0.100269643049
      2   S      14            16.7600000   -0.234047111838
      2   S      15             6.2070000   -0.301410927756
      2   S      16             0.6882000    1.034919649508

      3   S      17             1.7520000    1.000000000000

      4   S      18             0.2384000    1.000000000000

      5   P      19            34.4600000    0.041163489568
      5   P      20             7.7490000    0.257762835858
      5   P      21             2.2800000    0.802419274427

      6   P      22             0.7156000    1.000000000000

      7   P      23             0.2140000    1.000000000000

      8   D      24             2.3140000    1.000000000000

      9   D      25             0.6450000    1.000000000000

     10   F      26             1.4280000    1.000000000000

     11   S      27             0.0737600    1.000000000000

     12   P      28             0.0597400    1.000000000000

     13   D      29             0.2140000    1.000000000000

     14   F      30             0.5000000    1.000000000000

 H         

     24   S      31            33.8700000    0.025494863235
     24   S      32             5.0950000    0.190362765893
     24   S      33             1.1590000    0.852162022245

     25   S      34             0.3258000    1.000000000000

     26   S      35             0.1027000    1.000000000000

     27   P      36             1.4070000    1.000000000000

     28   P      37             0.3880000    1.000000000000

     29   D      38             1.0570000    1.000000000000

     30   S      39             0.0252600    1.000000000000

     31   P      40             0.1020000    1.000000000000

     32   D      41             0.2470000    1.000000000000

 TOTAL NUMBER OF BASIS SET SHELLS             =   32
 NUMBER OF CARTESIAN GAUSSIAN BASIS FUNCTIONS =  105
 NOTE: THIS RUN WILL RESTRICT THE MO VARIATION SPACE TO SPHERICAL HARMONICS.
 THE NUMBER OF ORBITALS KEPT IN THE VARIATIONAL SPACE WILL BE PRINTED LATER.
 NUMBER OF ELECTRONS                          =    9
 CHARGE OF MOLECULE                           =    1
 SPIN MULTIPLICITY                            =    2
 NUMBER OF OCCUPIED ORBITALS (ALPHA)          =    5
 NUMBER OF OCCUPIED ORBITALS (BETA )          =    4
 TOTAL NUMBER OF ATOMS                        =    3
 THE NUCLEAR REPULSION ENERGY IS        7.8375569539

     $CONTRL OPTIONS
     ---------------
 SCFTYP=ROHF         RUNTYP=OPTIMIZE     EXETYP=RUN     
 MPLEVL=       0     CITYP =NONE         CCTYP =CCSD         VBTYP =NONE    
 DFTTYP=NONE         TDDFT =NONE    
 MULT  =       2     ICHARG=       1     NZVAR =       0     COORD =UNIQUE  
 PP    =NONE         RELWFN=NONE         LOCAL =NONE         NUMGRD=       T
 ISPHER=       1     NOSYM =       0     MAXIT =      30     UNITS =ANGS    
 PLTORB=       F     MOLPLT=       F     AIMPAC=       F     FRIEND=        
 NPRINT=       7     IREST =       0     GEOM  =INPUT   
 NORMF =       0     NORMP =       0     ITOL  =      20     ICUT  =       9
 INTTYP=BEST         GRDTYP=BEST         QMTTOL= 1.0E-06

     $SYSTEM OPTIONS
     ---------------
  REPLICATED MEMORY=    32000000 WORDS (ON EVERY NODE).
 DISTRIBUTED MEMDDI=          64 MILLION WORDS IN AGGREGATE,
 MEMDDI DISTRIBUTED OVER   1 PROCESSORS IS    64000000 WORDS/PROCESSOR.
 TOTAL MEMORY REQUESTED ON EACH PROCESSOR=    96000000 WORDS.
 TIMLIM=      525600.00 MINUTES, OR     365.0 DAYS.
 PARALL= F  BALTYP=  DLB     KDIAG=    0  COREFL= F
 MXSEQ2=     300 MXSEQ3=     150  mem10=         0

          ----------------
          PROPERTIES INPUT
          ----------------

     MOMENTS            FIELD           POTENTIAL          DENSITY
 IEMOM =       1   IEFLD =       0   IEPOT =       0   IEDEN =       0
 WHERE =COMASS     WHERE =NUCLEI     WHERE =NUCLEI     WHERE =NUCLEI  
 OUTPUT=BOTH       OUTPUT=BOTH       OUTPUT=BOTH       OUTPUT=BOTH    
 IEMINT=       0   IEFINT=       0                     IEDINT=       0
                                                       MORB  =       0
          EXTRAPOLATION IN EFFECT
          SOSCF IN EFFECT
 ORBITAL PRINTING OPTION: NPREO=     1   105     2     1

     -------------------------------
     INTEGRAL TRANSFORMATION OPTIONS
     -------------------------------
     NWORD  =            0
     CUTOFF = 1.0E-09     MPTRAN =       0
     DIRTRF =       F     AOINTS =DUP     

          ----------------------
          INTEGRAL INPUT OPTIONS
          ----------------------
 NOPK  =       1 NORDER=       0 SCHWRZ=       F

     ------------------------------------------
     THE POINT GROUP IS CNV, NAXIS= 2, ORDER= 4
     ------------------------------------------

 -- VARIATIONAL SPACE WILL BE RESTRICTED TO PURE SPHERICAL HARMONICS ONLY --
 AFTER EXCLUDING CONTAMINANT COMBINATIONS FROM THE CARTESIAN GAUSSIAN BASIS
 SET, THE NUMBER OF SPHERICAL HARMONICS KEPT IN THE VARIATION SPACE IS   92

     DIMENSIONS OF THE SYMMETRY SUBSPACES ARE
 A1  =   35     A2  =   12     B1  =   18     B2  =   27

 ..... DONE SETTING UP THE RUN .....
 STEP CPU TIME =     0.01 TOTAL CPU TIME =        0.0 (    0.0 MIN)
 TOTAL WALL CLOCK TIME=        0.0 SECONDS, CPU UTILIZATION IS 100.00%


          -----------------------------
          STATIONARY POINT LOCATION RUN
          -----------------------------

 OBTAINING INITIAL HESSIAN, HESS=GUESS   
 CARTESIAN COORDINATE OPTIMIZATION USING BADGER'S RULE FORCE CONSTANT GUESS

          PARAMETERS CONTROLLING GEOMETRY SEARCH ARE
          METHOD =QA                  UPHESS =BFGS    
          NNEG   =         0          NFRZ   =         0
          NSTEP  =        50          IFOLOW =         1
          HESS   =GUESS               RESTAR =         F
          IHREP  =         0          HSSEND =         F
          NPRT   =         0          NPUN   =         0
          OPTTOL = 1.000E-04          RMIN   = 1.500E-03
          RMAX   = 1.000E-01          RLIM   = 7.000E-02
          DXMAX  = 3.000E-01          PURIFY =         F
          MOVIE  =         F          TRUPD  =         T
          TRMAX  = 5.000E-01          TRMIN  = 5.000E-02
          ITBMAT =         5          STPT   =         F
          STSTEP = 1.000E-02          PROJCT=          T

 BEGINNING GEOMETRY SEARCH POINT NSERCH=   0 ...

 COORDINATES OF SYMMETRY UNIQUE ATOMS (ANGS)
   ATOM   CHARGE       X              Y              Z
 ------------------------------------------------------------
 O           8.0   0.0000000000   0.0000000000   0.5000000000
 H           1.0   0.0000000000   1.0000000000   0.0000000000
 COORDINATES OF ALL ATOMS ARE (ANGS)
   ATOM   CHARGE       X              Y              Z
 ------------------------------------------------------------
 O           8.0   0.0000000000   0.0000000000   0.5000000000
 H           1.0  -0.0000000000  -1.0000000000   0.0000000000
 H           1.0   0.0000000000   1.0000000000   0.0000000000

          ********************
          1 ELECTRON INTEGRALS
          ********************
 ...... END OF ONE-ELECTRON INTEGRALS ......
 STEP CPU TIME =     0.00 TOTAL CPU TIME =        0.0 (    0.0 MIN)
 TOTAL WALL CLOCK TIME=        0.0 SECONDS, CPU UTILIZATION IS  50.00%

          -------------
          GUESS OPTIONS
          -------------
          GUESS =HUCKEL            NORB  =       0          NORDER=       0
          MIX   =       F          PRTMO =       F          PUNMO =       F
          TOLZ  = 1.0E-08          TOLE  = 1.0E-05
          SYMDEN=       F          PURIFY=       F

 INITIAL GUESS ORBITALS GENERATED BY HUCKEL   ROUTINE.
 HUCKEL GUESS REQUIRES     81459 WORDS.

 STATISTICS FOR GENERATION OF SYMMETRY ORBITAL -Q- MATRIX
 NUMBER OF CARTESIAN ATOMIC ORBITALS=        105
 NUMBER OF SPHERICAL CONTAMINANTS DROPPED=    13
 NUMBER OF LINEARLY DEPENDENT MOS DROPPED=     0
 TOTAL NUMBER OF MOS IN VARIATION SPACE=      92

 SYMMETRIES FOR INITIAL GUESS ORBITALS FOLLOW.  ALPHA SET(S).
     5 ORBITALS ARE OCCUPIED (    1 CORE ORBITALS).
     2=A1       3=B2       4=A1       5=B1       6=B2       7=A1       8=A1  
     9=A1      10=A1      11=A1      12=A1      13=A1      14=A1      15=A1  

 SYMMETRIES FOR INITIAL GUESS ORBITALS FOLLOW.   BETA SET(S).
     4 ORBITALS ARE OCCUPIED (    1 CORE ORBITALS).
     2=A1       3=B2       4=A1       5=B1       6=B2       7=A1       8=A1  
     9=A1      10=A1      11=A1      12=A1      13=A1      14=A1  
 ...... END OF INITIAL ORBITAL SELECTION ......
 STEP CPU TIME =     0.01 TOTAL CPU TIME =        0.0 (    0.0 MIN)
 TOTAL WALL CLOCK TIME=        0.0 SECONDS, CPU UTILIZATION IS  66.67%

                    ----------------------
                    AO INTEGRAL TECHNOLOGY
                    ----------------------
     S,P,L SHELL ROTATED AXIS INTEGRALS, REPROGRAMMED BY
        KAZUYA ISHIMURA (IMS) AND JOSE SIERRA (SYNSTAR).
     S,P,D,L SHELL ROTATED AXIS INTEGRALS PROGRAMMED BY
        KAZUYA ISHIMURA (INSTITUTE FOR MOLECULAR SCIENCE).
     S,P,D,F,G SHELL TO TOTAL QUARTET ANGULAR MOMENTUM SUM 5,
        ERIC PROGRAM BY GRAHAM FLETCHER (ELORET AND NASA ADVANCED
        SUPERCOMPUTING DIVISION, AMES RESEARCH CENTER).
     S,P,D,F,G,L SHELL GENERAL RYS QUADRATURE PROGRAMMED BY
        MICHEL DUPUIS (PACIFIC NORTHWEST NATIONAL LABORATORY).

          --------------------
          2 ELECTRON INTEGRALS
          --------------------

 THE -PK- OPTION IS OFF, THE INTEGRALS ARE NOT IN SUPERMATRIX FORM.
 STORING   15000 INTEGRALS/RECORD ON DISK, USING 12 BYTES/INTEGRAL.
 TWO ELECTRON INTEGRAL EVALUATION REQUIRES   99628 WORDS OF MEMORY.
 II,JST,KST,LST =  1  1  1  1 NREC =         1 INTLOC =    1
 II,JST,KST,LST =  2  1  1  1 NREC =         1 INTLOC =    2
 II,JST,KST,LST =  3  1  1  1 NREC =         1 INTLOC =    7
 II,JST,KST,LST =  4  1  1  1 NREC =         1 INTLOC =   22
 II,JST,KST,LST =  5  1  1  1 NREC =         1 INTLOC =   56
 II,JST,KST,LST =  6  1  1  1 NREC =         1 INTLOC =  125
 II,JST,KST,LST =  7  1  1  1 NREC =         1 INTLOC =  329
 II,JST,KST,LST =  8  1  1  1 NREC =         1 INTLOC =  776
 II,JST,KST,LST =  9  1  1  1 NREC =         1 INTLOC = 2864
 II,JST,KST,LST = 10  1  1  1 NREC =         1 INTLOC = 7967
 II,JST,KST,LST = 11  1  1  1 NREC =         2 INTLOC =12194
 II,JST,KST,LST = 12  1  1  1 NREC =         3 INTLOC =  731
 II,JST,KST,LST = 13  1  1  1 NREC =         3 INTLOC =11855
 II,JST,KST,LST = 14  1  1  1 NREC =         5 INTLOC =12962
 II,JST,KST,LST = 15  1  1  1 NREC =        11 INTLOC = 7589
 II,JST,KST,LST = 16  1  1  1 NREC =        11 INTLOC = 7589
 II,JST,KST,LST = 17  1  1  1 NREC =        11 INTLOC = 7589
 II,JST,KST,LST = 18  1  1  1 NREC =        11 INTLOC = 7589
 II,JST,KST,LST = 19  1  1  1 NREC =        11 INTLOC = 7589
 II,JST,KST,LST = 20  1  1  1 NREC =        11 INTLOC = 7589
 II,JST,KST,LST = 21  1  1  1 NREC =        11 INTLOC = 7589
 II,JST,KST,LST = 22  1  1  1 NREC =        11 INTLOC = 7589
 II,JST,KST,LST = 23  1  1  1 NREC =        11 INTLOC = 7589
 II,JST,KST,LST = 24  1  1  1 NREC =        11 INTLOC = 7589
 II,JST,KST,LST = 25  1  1  1 NREC =        14 INTLOC =10216
 II,JST,KST,LST = 26  1  1  1 NREC =        18 INTLOC = 3518
 II,JST,KST,LST = 27  1  1  1 NREC =        22 INTLOC = 2981
 II,JST,KST,LST = 28  1  1  1 NREC =        36 INTLOC = 2067
 II,JST,KST,LST = 29  1  1  1 NREC =        54 INTLOC = 2845
 II,JST,KST,LST = 30  1  1  1 NREC =       105 INTLOC =13511
 II,JST,KST,LST = 31  1  1  1 NREC =       117 INTLOC = 2170
 II,JST,KST,LST = 32  1  1  1 NREC =       154 INTLOC = 1510
 TOTAL NUMBER OF NONZERO TWO-ELECTRON INTEGRALS =             3754802
        251 INTEGRAL RECORDS WERE STORED ON DISK FILE  8.
  ...... END OF TWO-ELECTRON INTEGRALS .....
 STEP CPU TIME =     0.28 TOTAL CPU TIME =        0.3 (    0.0 MIN)
 TOTAL WALL CLOCK TIME=        0.3 SECONDS, CPU UTILIZATION IS  96.77%

          ---------------------------
                 ROHF SCF CALCULATION
          ---------------------------

     NUCLEAR ENERGY =         7.8375569539
     MAXIT = 30     NPUNCH=  2     MULT=  2
     EXTRAP=T  DAMP=F  SHIFT=F  RSTRCT=F  DIIS=F  SOSCF=T
     DENSITY MATRIX CONV=  1.00E-06
     ROHF CANONICALIZATION PARAMETERS
             C-C     O-O     V-V
     ALPHA -0.5000  0.5000  1.5000
     BETA   1.5000  0.5000 -0.5000
     SOSCF WILL OPTIMIZE     439 ORBITAL ROTATION ANGLES. SOGTOL= 2.500E-01
     MEMORY REQUIRED FOR UHF/ROHF ITERS=    133343 WORDS.

 ITER EX      TOTAL ENERGY        E CHANGE  DENSITY CHANGE    ORB. GRAD 
   1  0      -75.2635246829   -75.2635246829   0.417452140   0.000000000
          ---------------START SECOND ORDER SCF---------------
   2  1      -75.5708016961    -0.3072770132   0.108457098   0.109964181
   3  2      -75.6078471115    -0.0370454155   0.049390415   0.064180482
   4  3      -75.6235016255    -0.0156545140   0.007189990   0.005211218
   5  4      -75.6238291076    -0.0003274821   0.003949473   0.002345735
   6  5      -75.6238940078    -0.0000649002   0.000461214   0.000337203
   7  6      -75.6238954078    -0.0000013999   0.000233249   0.000111562
   8  7      -75.6238955762    -0.0000001685   0.000027009   0.000023946
   9  8      -75.6238955814    -0.0000000051   0.000012677   0.000009038
  10  9      -75.6238955822    -0.0000000008   0.000000686   0.000000628
  11 10      -75.6238955822    -0.0000000000   0.000000195   0.000000161

 ROHF HAS CONVERGED, NOW COMPUTING EXACT ALPHA,BETA FOCK MATRICES
 FOR USE DURING THE COUPLED CLUSTER CALCULATION THAT FOLLOWS.

          -----------------
          DENSITY CONVERGED
          -----------------
     TIME TO FORM FOCK OPERATORS=       0.8 SECONDS (       0.1 SEC/ITER)
     TIME TO SOLVE SCF EQUATIONS=       0.0 SECONDS (       0.0 SEC/ITER)

 FINAL ROHF ENERGY IS      -75.6238955822 AFTER  11 ITERATIONS

          --------------------
          SPIN SZ   =    0.500
          S-SQUARED =    0.750
          --------------------

          ------------
          EIGENVECTORS
          ------------

                      1          2          3          4          5
                  -21.0363    -1.5753    -1.0793    -0.9367    -0.6492
                     A1         A1         B2         A1         B1  
    1  O  1  S    0.975550   0.000178  -0.000000   0.004109   0.000000
    2  O  1  S   -0.002672   0.545161  -0.000000   0.143248   0.000000
    3  O  1  S    0.043128   0.146304  -0.000000   0.043672   0.000000
    4  O  1  S   -0.002076   0.320987  -0.000000   0.229206   0.000000
    5  O  1  X   -0.000000  -0.000000  -0.000000  -0.000000   0.397348
    6  O  1  Y   -0.000000  -0.000000   0.300283  -0.000000   0.000000
    7  O  1  Z   -0.001705  -0.036738  -0.000000   0.355567   0.000000
    8  O  1  X   -0.000000  -0.000000  -0.000000  -0.000000   0.513780
    9  O  1  Y   -0.000000  -0.000000   0.385502  -0.000000   0.000000
   10  O  1  Z    0.001627  -0.056004  -0.000000   0.448627   0.000000
   11  O  1  X   -0.000000  -0.000000  -0.000000  -0.000000   0.270893
   12  O  1  Y   -0.000000  -0.000000   0.187027  -0.000000   0.000000
   13  O  1  Z    0.000616  -0.033376  -0.000000   0.243382   0.000000
   14  O  1 XX   -0.000184  -0.003073  -0.000000   0.005071   0.000000
   15  O  1 YY    0.000111   0.003175  -0.000000  -0.001436   0.000000
   16  O  1 ZZ    0.000073  -0.000102  -0.000000  -0.003635   0.000000
   17  O  1 XY   -0.000000  -0.000000  -0.000000  -0.000000   0.000000
   18  O  1 XZ   -0.000000  -0.000000  -0.000000  -0.000000  -0.004661
   19  O  1 YZ   -0.000000  -0.000000  -0.009593  -0.000000   0.000000
   20  O  1 XX    0.000620  -0.011564  -0.000000   0.006457   0.000000
   21  O  1 YY   -0.001034   0.013607  -0.000000   0.007930   0.000000
   22  O  1 ZZ    0.000413  -0.002043  -0.000000  -0.014388   0.000000
   23  O  1 XY   -0.000000  -0.000000  -0.000000  -0.000000   0.000000
   24  O  1 XZ   -0.000000  -0.000000  -0.000000  -0.000000  -0.013329
   25  O  1 YZ   -0.000000  -0.000000  -0.026436  -0.000000   0.000000
   26  O  1 XXX  -0.000000  -0.000000  -0.000000  -0.000000   0.003972
   27  O  1 YYY  -0.000000  -0.000000   0.003028  -0.000000   0.000000
   28  O  1 ZZZ  -0.000091   0.001416  -0.000000  -0.002832   0.000000
   29  O  1 XXY  -0.000000  -0.000000  -0.002016  -0.000000   0.000000
   30  O  1 XXZ  -0.000052   0.000740  -0.000000   0.000471   0.000000
   31  O  1 YYX  -0.000000  -0.000000  -0.000000  -0.000000  -0.000609
   32  O  1 YYZ   0.000175  -0.002640  -0.000000   0.003328   0.000000
   33  O  1 ZZX  -0.000000  -0.000000  -0.000000  -0.000000  -0.004720
   34  O  1 ZZY  -0.000000  -0.000000  -0.002047  -0.000000   0.000000
   35  O  1 XYZ  -0.000000  -0.000000  -0.000000  -0.000000   0.000000
   36  O  1  S   -0.000321   0.041877  -0.000000   0.011640   0.000000
   37  O  1  X   -0.000000  -0.000000  -0.000000  -0.000000   0.003517
   38  O  1  Y   -0.000000  -0.000000   0.014475  -0.000000   0.000000
   39  O  1  Z   -0.000044  -0.004943  -0.000000   0.009554   0.000000
   40  O  1 XX    0.000030  -0.008783  -0.000000  -0.003644   0.000000
   41  O  1 YY    0.000073   0.010223  -0.000000   0.016259   0.000000
   42  O  1 ZZ   -0.000103  -0.001439  -0.000000  -0.012615   0.000000
   43  O  1 XY   -0.000000  -0.000000  -0.000000  -0.000000   0.000000
   44  O  1 XZ   -0.000000  -0.000000  -0.000000  -0.000000  -0.009917
   45  O  1 YZ   -0.000000  -0.000000  -0.008527  -0.000000   0.000000
   46  O  1 XXX  -0.000000  -0.000000  -0.000000  -0.000000   0.001888
   47  O  1 YYY  -0.000000  -0.000000   0.000740  -0.000000   0.000000
   48  O  1 ZZZ  -0.000113   0.002879  -0.000000  -0.000111   0.000000
   49  O  1 XXY  -0.000000  -0.000000  -0.002181  -0.000000   0.000000
   50  O  1 XXZ  -0.000077   0.002019  -0.000000   0.001789   0.000000
   51  O  1 YYX  -0.000000  -0.000000  -0.000000  -0.000000   0.000400
   52  O  1 YYZ   0.000228  -0.005881  -0.000000  -0.001640   0.000000
   53  O  1 ZZX  -0.000000  -0.000000  -0.000000  -0.000000  -0.002932
   54  O  1 ZZY  -0.000000  -0.000000   0.001188  -0.000000   0.000000
   55  O  1 XYZ  -0.000000  -0.000000  -0.000000  -0.000000   0.000000
   56  H  2  S    0.000042   0.061492  -0.119513  -0.058767   0.000000
   57  H  2  S    0.002174   0.049875  -0.176177  -0.135103   0.000000
   58  H  2  S    0.000218  -0.024633   0.003491  -0.028841   0.000000
   59  H  2  X   -0.000000  -0.000000  -0.000000  -0.000000   0.006738
   60  H  2  Y    0.000297   0.008949  -0.009295  -0.006943   0.000000
   61  H  2  Z    0.000171   0.003893  -0.007013   0.003274   0.000000
   62  H  2  X   -0.000000  -0.000000  -0.000000  -0.000000   0.017224
   63  H  2  Y    0.001515   0.012941  -0.028308  -0.038592   0.000000
   64  H  2  Z    0.000641   0.003429  -0.021754  -0.000330   0.000000
   65  H  2 XX   -0.000163  -0.001282   0.001456   0.001105   0.000000
   66  H  2 YY    0.000238   0.001935  -0.001002  -0.004361   0.000000
   67  H  2 ZZ   -0.000074  -0.000653  -0.000454   0.003256   0.000000
   68  H  2 XY   -0.000000  -0.000000  -0.000000  -0.000000   0.003906
   69  H  2 XZ   -0.000000  -0.000000  -0.000000  -0.000000   0.001915
   70  H  2 YZ    0.000229   0.001220  -0.003529   0.000330   0.000000
   71  H  2  S    0.000045  -0.001294   0.005055   0.000651   0.000000
   72  H  2  X   -0.000000  -0.000000  -0.000000  -0.000000  -0.004322
   73  H  2  Y    0.000216  -0.005738   0.004863  -0.006752   0.000000
   74  H  2  Z    0.000032  -0.003685   0.003444  -0.003646   0.000000
   75  H  2 XX   -0.000257  -0.001849   0.002045   0.003941   0.000000
   76  H  2 YY    0.000406   0.003350  -0.001719  -0.008166   0.000000
   77  H  2 ZZ   -0.000149  -0.001502  -0.000326   0.004225   0.000000
   78  H  2 XY   -0.000000  -0.000000  -0.000000  -0.000000   0.003543
   79  H  2 XZ   -0.000000  -0.000000  -0.000000  -0.000000   0.002422
   80  H  2 YZ    0.000341   0.002236  -0.006131  -0.000723   0.000000
   81  H  3  S    0.000042   0.061492   0.119513  -0.058767   0.000000
   82  H  3  S    0.002174   0.049875   0.176177  -0.135103   0.000000
   83  H  3  S    0.000218  -0.024633  -0.003491  -0.028841   0.000000
   84  H  3  X   -0.000000  -0.000000  -0.000000  -0.000000   0.006738
   85  H  3  Y   -0.000297  -0.008949  -0.009295   0.006943   0.000000
   86  H  3  Z    0.000171   0.003893   0.007013   0.003274   0.000000
   87  H  3  X   -0.000000  -0.000000  -0.000000  -0.000000   0.017224
   88  H  3  Y   -0.001515  -0.012941  -0.028308   0.038592   0.000000
   89  H  3  Z    0.000641   0.003429   0.021754  -0.000330   0.000000
   90  H  3 XX   -0.000163  -0.001282  -0.001456   0.001105   0.000000
   91  H  3 YY    0.000238   0.001935   0.001002  -0.004361   0.000000
   92  H  3 ZZ   -0.000074  -0.000653   0.000454   0.003256   0.000000
   93  H  3 XY   -0.000000  -0.000000  -0.000000  -0.000000  -0.003906
   94  H  3 XZ   -0.000000  -0.000000  -0.000000  -0.000000   0.001915
   95  H  3 YZ   -0.000229  -0.001220  -0.003529  -0.000330   0.000000
   96  H  3  S    0.000045  -0.001294  -0.005055   0.000651   0.000000
   97  H  3  X   -0.000000  -0.000000  -0.000000  -0.000000  -0.004322
   98  H  3  Y   -0.000216   0.005738   0.004863   0.006752   0.000000
   99  H  3  Z    0.000032  -0.003685  -0.003444  -0.003646   0.000000
  100  H  3 XX   -0.000257  -0.001849  -0.002045   0.003941   0.000000
  101  H  3 YY    0.000406   0.003350   0.001719  -0.008166   0.000000
  102  H  3 ZZ   -0.000149  -0.001502   0.000326   0.004225   0.000000
  103  H  3 XY   -0.000000  -0.000000  -0.000000  -0.000000  -0.003543
  104  H  3 XZ   -0.000000  -0.000000  -0.000000  -0.000000   0.002422
  105  H  3 YZ   -0.000341  -0.002236  -0.006131   0.000723   0.000000

                      6          7          8          9         10
                   -0.2140    -0.1319    -0.0752    -0.0684    -0.0554
                     A1         B2         A1         B1         A1  
    1  O  1  S    0.014925   0.000000  -0.013655   0.000000  -0.004766
    2  O  1  S    0.224853   0.000000  -0.113784   0.000000   0.029990
    3  O  1  S    0.069691   0.000000  -0.037435   0.000000   0.013031
    4  O  1  S    0.269900   0.000000   0.326267   0.000000   0.403964
    5  O  1  X    0.000000   0.000000  -0.000000  -0.112568  -0.000000
    6  O  1  Y    0.000000   0.153170  -0.000000   0.000000  -0.000000
    7  O  1  Z   -0.103448   0.000000   0.058550   0.000000   0.082055
    8  O  1  X    0.000000   0.000000  -0.000000  -0.124372  -0.000000
    9  O  1  Y    0.000000   0.198107  -0.000000   0.000000  -0.000000
   10  O  1  Z   -0.136367   0.000000   0.067993   0.000000   0.091364
   11  O  1  X    0.000000   0.000000  -0.000000  -0.141922  -0.000000
   12  O  1  Y    0.000000   0.183168  -0.000000   0.000000  -0.000000
   13  O  1  Z   -0.106338   0.000000  -0.108245   0.000000   0.063080
   14  O  1 XX    0.008638   0.000000  -0.005914   0.000000   0.000907
   15  O  1 YY   -0.008260   0.000000   0.006482   0.000000  -0.002072
   16  O  1 ZZ   -0.000378   0.000000  -0.000568   0.000000   0.001164
   17  O  1 XY    0.000000   0.000000  -0.000000   0.000000  -0.000000
   18  O  1 XZ    0.000000   0.000000  -0.000000  -0.001507  -0.000000
   19  O  1 YZ    0.000000   0.001353  -0.000000   0.000000  -0.000000
   20  O  1 XX    0.022435   0.000000  -0.037597   0.000000   0.018707
   21  O  1 YY   -0.027359   0.000000   0.049902   0.000000  -0.008606
   22  O  1 ZZ    0.004924   0.000000  -0.012305   0.000000  -0.010101
   23  O  1 XY    0.000000   0.000000  -0.000000   0.000000  -0.000000
   24  O  1 XZ    0.000000   0.000000  -0.000000   0.013276  -0.000000
   25  O  1 YZ    0.000000   0.009534  -0.000000   0.000000  -0.000000
   26  O  1 XXX   0.000000   0.000000  -0.000000  -0.001119  -0.000000
   27  O  1 YYY   0.000000  -0.000420  -0.000000   0.000000  -0.000000
   28  O  1 ZZZ   0.000820   0.000000   0.000543   0.000000  -0.000404
   29  O  1 XXY   0.000000   0.002834  -0.000000   0.000000  -0.000000
   30  O  1 XXZ  -0.002677   0.000000   0.002088   0.000000   0.001715
   31  O  1 YYX   0.000000   0.000000  -0.000000   0.000146  -0.000000
   32  O  1 YYZ   0.001577   0.000000  -0.002816   0.000000  -0.001173
   33  O  1 ZZX   0.000000   0.000000  -0.000000   0.001355  -0.000000
   34  O  1 ZZY   0.000000  -0.002270  -0.000000   0.000000  -0.000000
   35  O  1 XYZ   0.000000   0.000000  -0.000000   0.000000  -0.000000
   36  O  1  S   -0.219599   0.000000   1.589042   0.000000   2.634138
   37  O  1  X    0.000000   0.000000  -0.000000   1.171186  -0.000000
   38  O  1  Y    0.000000   0.001274  -0.000000   0.000000  -0.000000
   39  O  1  Z    0.044386   0.000000  -0.072953   0.000000  -1.573766
   40  O  1 XX    0.017120   0.000000  -0.037710   0.000000  -0.045153
   41  O  1 YY   -0.021266   0.000000   0.022673   0.000000  -0.010651
   42  O  1 ZZ    0.004146   0.000000   0.015037   0.000000   0.055804
   43  O  1 XY    0.000000   0.000000  -0.000000   0.000000  -0.000000
   44  O  1 XZ    0.000000   0.000000  -0.000000  -0.073644  -0.000000
   45  O  1 YZ    0.000000  -0.006747  -0.000000   0.000000  -0.000000
   46  O  1 XXX   0.000000   0.000000  -0.000000  -0.000099  -0.000000
   47  O  1 YYY   0.000000  -0.000484  -0.000000   0.000000  -0.000000
   48  O  1 ZZZ  -0.000467   0.000000   0.005859   0.000000  -0.006700
   49  O  1 XXY   0.000000   0.000870  -0.000000   0.000000  -0.000000
   50  O  1 XXZ  -0.002659   0.000000   0.006403   0.000000  -0.004215
   51  O  1 YYX   0.000000   0.000000  -0.000000  -0.001224  -0.000000
   52  O  1 YYZ   0.003286   0.000000  -0.014264   0.000000   0.013204
   53  O  1 ZZX   0.000000   0.000000  -0.000000   0.001357  -0.000000
   54  O  1 ZZY   0.000000  -0.000221  -0.000000   0.000000  -0.000000
   55  O  1 XYZ   0.000000   0.000000  -0.000000   0.000000  -0.000000
   56  H  2  S   -0.091903   0.048497   0.083512   0.000000  -0.020987
   57  H  2  S   -0.192188   0.119885   0.106847   0.000000   0.020228
   58  H  2  S   -0.233226   0.254279  -0.171049   0.000000  -1.503982
   59  H  2  X    0.000000   0.000000  -0.000000   0.002004  -0.000000
   60  H  2  Y    0.007738  -0.007010  -0.004918   0.000000   0.005255
   61  H  2  Z    0.001236  -0.005207  -0.000357   0.000000  -0.000797
   62  H  2  X    0.000000   0.000000  -0.000000   0.018182  -0.000000
   63  H  2  Y    0.041655  -0.032395  -0.088774   0.000000  -0.037059
   64  H  2  Z    0.011141  -0.026466  -0.015643   0.000000  -0.033170
   65  H  2 XX   -0.001451   0.000397   0.002729   0.000000   0.002158
   66  H  2 YY    0.002472  -0.000024  -0.003515   0.000000  -0.001621
   67  H  2 ZZ   -0.001021  -0.000373   0.000786   0.000000  -0.000537
   68  H  2 XY    0.000000   0.000000  -0.000000   0.001205  -0.000000
   69  H  2 XZ    0.000000   0.000000  -0.000000   0.000815  -0.000000
   70  H  2 YZ    0.000890  -0.001103  -0.002654   0.000000  -0.001072
   71  H  2  S   -0.169323   0.947423  -0.874418   0.000000  -0.249881
   72  H  2  X    0.000000   0.000000  -0.000000  -0.068774  -0.000000
   73  H  2  Y    0.120489  -0.161771  -0.438686   0.000000  -0.271697
   74  H  2  Z    0.042518  -0.127326  -0.116832   0.000000  -0.112279
   75  H  2 XX   -0.005771   0.010607   0.022346   0.000000   0.012411
   76  H  2 YY    0.011330  -0.004745  -0.050012   0.000000  -0.024721
   77  H  2 ZZ   -0.005559  -0.005861   0.027666   0.000000   0.012310
   78  H  2 XY    0.000000   0.000000  -0.000000  -0.022472  -0.000000
   79  H  2 XZ    0.000000   0.000000  -0.000000  -0.004268  -0.000000
   80  H  2 YZ    0.007998  -0.012396  -0.032145   0.000000  -0.010942
   81  H  3  S   -0.091903  -0.048497   0.083512   0.000000  -0.020987
   82  H  3  S   -0.192188  -0.119885   0.106847   0.000000   0.020228
   83  H  3  S   -0.233226  -0.254279  -0.171049   0.000000  -1.503982
   84  H  3  X    0.000000   0.000000  -0.000000   0.002004  -0.000000
   85  H  3  Y   -0.007738  -0.007010   0.004918   0.000000  -0.005255
   86  H  3  Z    0.001236   0.005207  -0.000357   0.000000  -0.000797
   87  H  3  X    0.000000   0.000000  -0.000000   0.018182  -0.000000
   88  H  3  Y   -0.041655  -0.032395   0.088774   0.000000   0.037059
   89  H  3  Z    0.011141   0.026466  -0.015643   0.000000  -0.033170
   90  H  3 XX   -0.001451  -0.000397   0.002729   0.000000   0.002158
   91  H  3 YY    0.002472   0.000024  -0.003515   0.000000  -0.001621
   92  H  3 ZZ   -0.001021   0.000373   0.000786   0.000000  -0.000537
   93  H  3 XY    0.000000   0.000000  -0.000000  -0.001205  -0.000000
   94  H  3 XZ    0.000000   0.000000  -0.000000   0.000815  -0.000000
   95  H  3 YZ   -0.000890  -0.001103   0.002654   0.000000   0.001072
   96  H  3  S   -0.169323  -0.947423  -0.874418   0.000000  -0.249881
   97  H  3  X    0.000000   0.000000  -0.000000  -0.068774  -0.000000
   98  H  3  Y   -0.120489  -0.161771   0.438686   0.000000   0.271697
   99  H  3  Z    0.042518   0.127326  -0.116832   0.000000  -0.112279
  100  H  3 XX   -0.005771  -0.010607   0.022346   0.000000   0.012411
  101  H  3 YY    0.011330   0.004745  -0.050012   0.000000  -0.024721
  102  H  3 ZZ   -0.005559   0.005861   0.027666   0.000000   0.012310
  103  H  3 XY    0.000000   0.000000  -0.000000   0.022472  -0.000000
  104  H  3 XZ    0.000000   0.000000  -0.000000  -0.004268  -0.000000
  105  H  3 YZ   -0.007998  -0.012396   0.032145   0.000000   0.010942

                     11         12         13         14         15
                   -0.0396     0.0131     0.0140     0.0259     0.0826
                     B2         B2         A1         A2         A1  
    1  O  1  S   -0.000000  -0.000000  -0.029905  -0.000000  -0.013390
    2  O  1  S   -0.000000  -0.000000  -0.137254  -0.000000  -0.039299
    3  O  1  S   -0.000000  -0.000000  -0.050332  -0.000000  -0.027431
    4  O  1  S   -0.000000  -0.000000   0.474910  -0.000000   0.897533
    5  O  1  X   -0.000000  -0.000000  -0.000000  -0.000000  -0.000000
    6  O  1  Y   -0.128388  -0.027332  -0.000000  -0.000000  -0.000000
    7  O  1  Z   -0.000000  -0.000000  -0.011825  -0.000000  -0.087055
    8  O  1  X   -0.000000  -0.000000  -0.000000  -0.000000  -0.000000
    9  O  1  Y   -0.150478  -0.019593  -0.000000  -0.000000  -0.000000
   10  O  1  Z   -0.000000  -0.000000  -0.027828  -0.000000  -0.089208
   11  O  1  X   -0.000000  -0.000000  -0.000000  -0.000000  -0.000000
   12  O  1  Y    0.142886   0.775670  -0.000000  -0.000000  -0.000000
   13  O  1  Z   -0.000000  -0.000000  -0.186126  -0.000000  -1.365312
   14  O  1 XX   -0.000000  -0.000000   0.003605  -0.000000   0.010465
   15  O  1 YY   -0.000000  -0.000000  -0.006684  -0.000000  -0.007336
   16  O  1 ZZ   -0.000000  -0.000000   0.003079  -0.000000  -0.003129
   17  O  1 XY   -0.000000  -0.000000  -0.000000  -0.005823  -0.000000
   18  O  1 XZ   -0.000000  -0.000000  -0.000000  -0.000000  -0.000000
   19  O  1 YZ   -0.003066   0.006843  -0.000000  -0.000000  -0.000000
   20  O  1 XX   -0.000000  -0.000000  -0.020921  -0.000000  -0.029394
   21  O  1 YY   -0.000000  -0.000000   0.012127  -0.000000   0.057173
   22  O  1 ZZ   -0.000000  -0.000000   0.008794  -0.000000  -0.027780
   23  O  1 XY   -0.000000  -0.000000  -0.000000  -0.035590  -0.000000
   24  O  1 XZ   -0.000000  -0.000000  -0.000000  -0.000000  -0.000000
   25  O  1 YZ   -0.034963  -0.008096  -0.000000  -0.000000  -0.000000
   26  O  1 XXX  -0.000000  -0.000000  -0.000000  -0.000000  -0.000000
   27  O  1 YYY  -0.000504   0.001603  -0.000000  -0.000000  -0.000000
   28  O  1 ZZZ  -0.000000  -0.000000  -0.001684  -0.000000   0.005049
   29  O  1 XXY  -0.002958   0.002381  -0.000000  -0.000000  -0.000000
   30  O  1 XXZ  -0.000000  -0.000000   0.000779  -0.000000  -0.004422
   31  O  1 YYX  -0.000000  -0.000000  -0.000000  -0.000000  -0.000000
   32  O  1 YYZ  -0.000000  -0.000000   0.001480  -0.000000  -0.002353
   33  O  1 ZZX  -0.000000  -0.000000  -0.000000  -0.000000  -0.000000
   34  O  1 ZZY   0.003634  -0.004531  -0.000000  -0.000000  -0.000000
   35  O  1 XYZ  -0.000000  -0.000000  -0.000000   0.007204  -0.000000
   36  O  1  S   -0.000000  -0.000000   5.578817  -0.000000   6.353271
   37  O  1  X   -0.000000  -0.000000  -0.000000  -0.000000  -0.000000
   38  O  1  Y    0.863651   2.919805  -0.000000  -0.000000  -0.000000
   39  O  1  Z   -0.000000  -0.000000   0.158664  -0.000000  -2.579442
   40  O  1 XX   -0.000000  -0.000000  -0.176890  -0.000000  -0.048707
   41  O  1 YY   -0.000000  -0.000000   0.490290  -0.000000  -0.213363
   42  O  1 ZZ   -0.000000  -0.000000  -0.313400  -0.000000   0.262070
   43  O  1 XY   -0.000000  -0.000000  -0.000000   0.404227  -0.000000
   44  O  1 XZ   -0.000000  -0.000000  -0.000000  -0.000000  -0.000000
   45  O  1 YZ    0.012421  -0.428720  -0.000000  -0.000000  -0.000000
   46  O  1 XXX  -0.000000  -0.000000  -0.000000  -0.000000  -0.000000
   47  O  1 YYY   0.011224  -0.000010  -0.000000  -0.000000  -0.000000
   48  O  1 ZZZ  -0.000000  -0.000000   0.029073  -0.000000   0.008772
   49  O  1 XXY  -0.007098  -0.030569  -0.000000  -0.000000  -0.000000
   50  O  1 XXZ  -0.000000  -0.000000   0.006951  -0.000000   0.030120
   51  O  1 YYX  -0.000000  -0.000000  -0.000000  -0.000000  -0.000000
   52  O  1 YYZ  -0.000000  -0.000000  -0.045957  -0.000000  -0.041888
   53  O  1 ZZX  -0.000000  -0.000000  -0.000000  -0.000000  -0.000000
   54  O  1 ZZY  -0.007961   0.030582  -0.000000  -0.000000  -0.000000
   55  O  1 XYZ  -0.000000  -0.000000  -0.000000  -0.037635  -0.000000
   56  H  2  S   -0.067669   0.024523  -0.023697  -0.000000  -0.037040
   57  H  2  S   -0.113162   0.486323  -0.483296  -0.000000  -0.348258
   58  H  2  S    0.496111   2.324160  -2.209636  -0.000000  -3.277380
   59  H  2  X   -0.000000  -0.000000  -0.000000   0.002774  -0.000000
   60  H  2  Y    0.003140  -0.002899  -0.002800  -0.000000   0.006277
   61  H  2  Z    0.005401  -0.003852   0.002736  -0.000000  -0.002029
   62  H  2  X   -0.000000  -0.000000  -0.000000   0.139115  -0.000000
   63  H  2  Y    0.074070   0.208566  -0.111169  -0.000000  -0.276762
   64  H  2  Z    0.068821   0.013680  -0.173201  -0.000000   0.026503
   65  H  2 XX   -0.001213  -0.006386   0.004763  -0.000000   0.008412
   66  H  2 YY    0.001165   0.009327  -0.010957  -0.000000  -0.011753
   67  H  2 ZZ    0.000048  -0.002941   0.006194  -0.000000   0.003341
   68  H  2 XY   -0.000000  -0.000000  -0.000000  -0.000349  -0.000000
   69  H  2 XZ   -0.000000  -0.000000  -0.000000  -0.003248  -0.000000
   70  H  2 YZ    0.002234   0.004230  -0.009504  -0.000000  -0.014190
   71  H  2  S    2.398325   2.013399  -0.640543  -0.000000  -0.429579
   72  H  2  X   -0.000000  -0.000000  -0.000000   1.223093  -0.000000
   73  H  2  Y    0.465150   0.338274  -0.074406  -0.000000  -1.027790
   74  H  2  Z    0.520023  -0.206634  -0.782662  -0.000000   0.992293
   75  H  2 XX   -0.040291   0.031881   0.017928  -0.000000   0.069409
   76  H  2 YY    0.021746   0.017704   0.058089  -0.000000  -0.180733
   77  H  2 ZZ    0.018545  -0.049585  -0.076018  -0.000000   0.111324
   78  H  2 XY   -0.000000  -0.000000  -0.000000   0.149462  -0.000000
   79  H  2 XZ   -0.000000  -0.000000  -0.000000   0.112690  -0.000000
   80  H  2 YZ    0.060909  -0.023405  -0.078510  -0.000000   0.096128
   81  H  3  S    0.067669  -0.024523  -0.023697  -0.000000  -0.037040
   82  H  3  S    0.113162  -0.486323  -0.483296  -0.000000  -0.348258
   83  H  3  S   -0.496111  -2.324160  -2.209636  -0.000000  -3.277380
   84  H  3  X   -0.000000  -0.000000  -0.000000  -0.002774  -0.000000
   85  H  3  Y    0.003140  -0.002899   0.002800  -0.000000  -0.006277
   86  H  3  Z   -0.005401   0.003852   0.002736  -0.000000  -0.002029
   87  H  3  X   -0.000000  -0.000000  -0.000000  -0.139115  -0.000000
   88  H  3  Y    0.074070   0.208566   0.111169  -0.000000   0.276762
   89  H  3  Z   -0.068821  -0.013680  -0.173201  -0.000000   0.026503
   90  H  3 XX    0.001213   0.006386   0.004763  -0.000000   0.008412
   91  H  3 YY   -0.001165  -0.009327  -0.010957  -0.000000  -0.011753
   92  H  3 ZZ   -0.000048   0.002941   0.006194  -0.000000   0.003341
   93  H  3 XY   -0.000000  -0.000000  -0.000000  -0.000349  -0.000000
   94  H  3 XZ   -0.000000  -0.000000  -0.000000   0.003248  -0.000000
   95  H  3 YZ    0.002234   0.004230   0.009504  -0.000000   0.014190
   96  H  3  S   -2.398325  -2.013399  -0.640543  -0.000000  -0.429579
   97  H  3  X   -0.000000  -0.000000  -0.000000  -1.223093  -0.000000
   98  H  3  Y    0.465150   0.338274   0.074406  -0.000000   1.027790
   99  H  3  Z   -0.520023   0.206634  -0.782662  -0.000000   0.992293
  100  H  3 XX    0.040291  -0.031881   0.017928  -0.000000   0.069409
  101  H  3 YY   -0.021746  -0.017704   0.058089  -0.000000  -0.180733
  102  H  3 ZZ   -0.018545   0.049585  -0.076018  -0.000000   0.111324
  103  H  3 XY   -0.000000  -0.000000  -0.000000   0.149462  -0.000000
  104  H  3 XZ   -0.000000  -0.000000  -0.000000  -0.112690  -0.000000
  105  H  3 YZ    0.060909  -0.023405   0.078510  -0.000000  -0.096128

                     16         17         18         19         20
                    0.0843     0.1491     0.1492     0.1769     0.3286
                     B1         A1         B2         B2         A1  
    1  O  1  S    0.000000  -0.021093   0.000000  -0.000000  -0.060245
    2  O  1  S    0.000000   0.098980   0.000000  -0.000000  -0.080260
    3  O  1  S    0.000000   0.033908   0.000000  -0.000000  -0.018181
    4  O  1  S    0.000000   3.015604   0.000000  -0.000000   2.600221
    5  O  1  X    0.067380   0.000000   0.000000  -0.000000  -0.000000
    6  O  1  Y    0.000000   0.000000   0.074438   0.153520  -0.000000
    7  O  1  Z    0.000000  -0.064809   0.000000  -0.000000  -0.044050
    8  O  1  X    0.032961   0.000000   0.000000  -0.000000  -0.000000
    9  O  1  Y    0.000000   0.000000   0.098487   0.285009  -0.000000
   10  O  1  Z    0.000000  -0.159060   0.000000  -0.000000  -0.162451
   11  O  1  X    0.909281   0.000000   0.000000  -0.000000  -0.000000
   12  O  1  Y    0.000000   0.000000   0.382287   1.782577  -0.000000
   13  O  1  Z    0.000000  -0.496435   0.000000  -0.000000  -0.061327
   14  O  1 XX    0.000000   0.011795   0.000000  -0.000000  -0.017566
   15  O  1 YY    0.000000  -0.015437   0.000000  -0.000000   0.018684
   16  O  1 ZZ    0.000000   0.003642   0.000000  -0.000000  -0.001118
   17  O  1 XY    0.000000   0.000000   0.000000  -0.000000  -0.000000
   18  O  1 XZ    0.005934   0.000000   0.000000  -0.000000  -0.000000
   19  O  1 YZ    0.000000   0.000000   0.001406   0.011680  -0.000000
   20  O  1 XX    0.000000  -0.033387   0.000000  -0.000000  -0.056952
   21  O  1 YY    0.000000   0.041120   0.000000  -0.000000   0.091084
   22  O  1 ZZ    0.000000  -0.007734   0.000000  -0.000000  -0.034132
   23  O  1 XY    0.000000   0.000000   0.000000  -0.000000  -0.000000
   24  O  1 XZ    0.020610   0.000000   0.000000  -0.000000  -0.000000
   25  O  1 YZ    0.000000   0.000000  -0.007524  -0.060973  -0.000000
   26  O  1 XXX   0.008286   0.000000   0.000000  -0.000000  -0.000000
   27  O  1 YYY   0.000000   0.000000  -0.007037  -0.002227  -0.000000
   28  O  1 ZZZ   0.000000   0.004897   0.000000  -0.000000   0.005278
   29  O  1 XXY   0.000000   0.000000   0.000824   0.000078  -0.000000
   30  O  1 XXZ   0.000000   0.003264   0.000000  -0.000000   0.004578
   31  O  1 YYX  -0.007065   0.000000   0.000000  -0.000000  -0.000000
   32  O  1 YYZ   0.000000  -0.009834   0.000000  -0.000000  -0.011660
   33  O  1 ZZX  -0.004052   0.000000   0.000000  -0.000000  -0.000000
   34  O  1 ZZY   0.000000   0.000000   0.008618   0.002910  -0.000000
   35  O  1 XYZ   0.000000   0.000000   0.000000  -0.000000  -0.000000
   36  O  1  S    0.000000   6.516933   0.000000  -0.000000  10.647235
   37  O  1  X    2.187741   0.000000   0.000000  -0.000000  -0.000000
   38  O  1  Y    0.000000   0.000000   3.853400   1.446485  -0.000000
   39  O  1  Z    0.000000   0.026101   0.000000  -0.000000  -1.391577
   40  O  1 XX    0.000000   0.224114   0.000000  -0.000000  -0.573478
   41  O  1 YY    0.000000  -0.332131   0.000000  -0.000000   1.038489
   42  O  1 ZZ    0.000000   0.108017   0.000000  -0.000000  -0.465011
   43  O  1 XY    0.000000   0.000000   0.000000  -0.000000  -0.000000
   44  O  1 XZ   -0.205012   0.000000   0.000000  -0.000000  -0.000000
   45  O  1 YZ    0.000000   0.000000   0.332260   0.222125  -0.000000
   46  O  1 XXX  -0.039611   0.000000   0.000000  -0.000000  -0.000000
   47  O  1 YYY   0.000000   0.000000   0.029445   0.048008  -0.000000
   48  O  1 ZZZ   0.000000  -0.011859   0.000000  -0.000000   0.012788
   49  O  1 XXY   0.000000   0.000000   0.006815  -0.011372  -0.000000
   50  O  1 XXZ   0.000000  -0.017129   0.000000  -0.000000  -0.001922
   51  O  1 YYX   0.041941   0.000000   0.000000  -0.000000  -0.000000
   52  O  1 YYZ   0.000000   0.033040   0.000000  -0.000000  -0.015235
   53  O  1 ZZX   0.011203   0.000000   0.000000  -0.000000  -0.000000
   54  O  1 ZZY   0.000000   0.000000  -0.046320  -0.053037  -0.000000
   55  O  1 XYZ   0.000000   0.000000   0.000000  -0.000000  -0.000000
   56  H  2  S    0.000000  -0.072945   0.047362   0.068562   0.091261
   57  H  2  S    0.000000  -0.260135   0.003989   0.452526   0.179772
   58  H  2  S    0.000000  -3.196523   1.590027   5.101597  -6.594194
   59  H  2  X   -0.006732   0.000000   0.000000  -0.000000  -0.000000
   60  H  2  Y    0.000000   0.007626  -0.009842  -0.008523   0.012106
   61  H  2  Z    0.000000  -0.005830   0.007364  -0.010742   0.026457
   62  H  2  X   -0.099055   0.000000   0.000000  -0.000000  -0.000000
   63  H  2  Y    0.000000  -0.164156  -0.017403   0.177280  -0.289103
   64  H  2  Z    0.000000  -0.045206   0.034005   0.179296  -0.278387
   65  H  2 XX    0.000000   0.007226  -0.001726  -0.000793   0.010418
   66  H  2 YY    0.000000  -0.003116   0.004884  -0.001481  -0.014327
   67  H  2 ZZ    0.000000  -0.004111  -0.003159   0.002275   0.003908
   68  H  2 XY    0.002694   0.000000   0.000000  -0.000000  -0.000000
   69  H  2 XZ   -0.003542   0.000000   0.000000  -0.000000  -0.000000
   70  H  2 YZ    0.000000  -0.005755  -0.001480   0.009958  -0.012446
   71  H  2  S    0.000000  -0.751622   1.307284   1.680553  -0.444183
   72  H  2  X   -1.695615   0.000000   0.000000  -0.000000  -0.000000
   73  H  2  Y    0.000000  -2.054392  -1.396346   3.018063  -1.311242
   74  H  2  Z    0.000000  -1.266480   1.543459   1.202029  -1.098150
   75  H  2 XX    0.000000   0.112781   0.004386  -0.173756   0.045204
   76  H  2 YY    0.000000  -0.231172  -0.146045   0.177830   0.081188
   77  H  2 ZZ    0.000000   0.118391   0.141659  -0.004074  -0.126392
   78  H  2 XY   -0.229486   0.000000   0.000000  -0.000000  -0.000000
   79  H  2 XZ   -0.026013   0.000000   0.000000  -0.000000  -0.000000
   80  H  2 YZ    0.000000  -0.228619   0.122654   0.212330  -0.204770
   81  H  3  S    0.000000  -0.072945  -0.047362  -0.068562   0.091261
   82  H  3  S    0.000000  -0.260135  -0.003989  -0.452526   0.179772
   83  H  3  S    0.000000  -3.196523  -1.590027  -5.101597  -6.594194
   84  H  3  X   -0.006732   0.000000   0.000000  -0.000000  -0.000000
   85  H  3  Y    0.000000  -0.007626  -0.009842  -0.008523  -0.012106
   86  H  3  Z    0.000000  -0.005830  -0.007364   0.010742   0.026457
   87  H  3  X   -0.099055   0.000000   0.000000  -0.000000  -0.000000
   88  H  3  Y    0.000000   0.164156  -0.017403   0.177280   0.289103
   89  H  3  Z    0.000000  -0.045206  -0.034005  -0.179296  -0.278387
   90  H  3 XX    0.000000   0.007226   0.001726   0.000793   0.010418
   91  H  3 YY    0.000000  -0.003116  -0.004884   0.001481  -0.014327
   92  H  3 ZZ    0.000000  -0.004111   0.003159  -0.002275   0.003908
   93  H  3 XY   -0.002694   0.000000   0.000000  -0.000000  -0.000000
   94  H  3 XZ   -0.003542   0.000000   0.000000  -0.000000  -0.000000
   95  H  3 YZ    0.000000   0.005755  -0.001480   0.009958   0.012446
   96  H  3  S    0.000000  -0.751622  -1.307284  -1.680553  -0.444183
   97  H  3  X   -1.695615   0.000000   0.000000  -0.000000  -0.000000
   98  H  3  Y    0.000000   2.054392  -1.396346   3.018063   1.311242
   99  H  3  Z    0.000000  -1.266480  -1.543459  -1.202029  -1.098150
  100  H  3 XX    0.000000   0.112781  -0.004386   0.173756   0.045204
  101  H  3 YY    0.000000  -0.231172   0.146045  -0.177830   0.081188
  102  H  3 ZZ    0.000000   0.118391  -0.141659   0.004074  -0.126392
  103  H  3 XY    0.229486   0.000000   0.000000  -0.000000  -0.000000
  104  H  3 XZ   -0.026013   0.000000   0.000000  -0.000000  -0.000000
  105  H  3 YZ    0.000000   0.228619   0.122654   0.212330   0.204770

                     21         22         23         24         25
                    0.3410     0.3910     0.3918     0.4060     0.5075
                     B2         B1         A1         A2         A1  
    1  O  1  S    0.000000  -0.000000   0.005397   0.000000   0.009668
    2  O  1  S    0.000000  -0.000000   0.018698   0.000000  -0.077622
    3  O  1  S    0.000000  -0.000000   0.011949   0.000000  -0.014150
    4  O  1  S    0.000000  -0.000000  -0.277176   0.000000  -0.448124
    5  O  1  X    0.000000   0.059107  -0.000000   0.000000   0.000000
    6  O  1  Y   -0.015435  -0.000000  -0.000000   0.000000   0.000000
    7  O  1  Z    0.000000  -0.000000   0.035569   0.000000   0.025040
    8  O  1  X    0.000000   0.112751  -0.000000   0.000000   0.000000
    9  O  1  Y    0.045434  -0.000000  -0.000000   0.000000   0.000000
   10  O  1  Z    0.000000  -0.000000   0.070907   0.000000   0.084309
   11  O  1  X    0.000000   0.211503  -0.000000   0.000000   0.000000
   12  O  1  Y    3.104451  -0.000000  -0.000000   0.000000   0.000000
   13  O  1  Z    0.000000  -0.000000   0.790487   0.000000  -1.125699
   14  O  1 XX    0.000000  -0.000000   0.025944   0.000000  -0.010995
   15  O  1 YY    0.000000  -0.000000   0.004453   0.000000  -0.000801
   16  O  1 ZZ    0.000000  -0.000000  -0.030397   0.000000   0.011796
   17  O  1 XY    0.000000  -0.000000  -0.000000   0.029284   0.000000
   18  O  1 XZ    0.000000  -0.035050  -0.000000   0.000000   0.000000
   19  O  1 YZ   -0.011501  -0.000000  -0.000000   0.000000   0.000000
   20  O  1 XX    0.000000  -0.000000  -0.009683   0.000000   0.014783
   21  O  1 YY    0.000000  -0.000000  -0.028787   0.000000  -0.051280
   22  O  1 ZZ    0.000000  -0.000000   0.038471   0.000000   0.036498
   23  O  1 XY    0.000000  -0.000000  -0.000000   0.036391   0.000000
   24  O  1 XZ    0.000000   0.038681  -0.000000   0.000000   0.000000
   25  O  1 YZ   -0.168287  -0.000000  -0.000000   0.000000   0.000000
   26  O  1 XXX   0.000000   0.006463  -0.000000   0.000000   0.000000
   27  O  1 YYY   0.005619  -0.000000  -0.000000   0.000000   0.000000
   28  O  1 ZZZ   0.000000  -0.000000   0.009145   0.000000   0.019162
   29  O  1 XXY   0.004689  -0.000000  -0.000000   0.000000   0.000000
   30  O  1 XXZ   0.000000  -0.000000   0.003698   0.000000  -0.002812
   31  O  1 YYX   0.000000  -0.013589  -0.000000   0.000000   0.000000
   32  O  1 YYZ   0.000000  -0.000000  -0.015968   0.000000  -0.022897
   33  O  1 ZZX   0.000000   0.004917  -0.000000   0.000000   0.000000
   34  O  1 ZZY  -0.012227  -0.000000  -0.000000   0.000000   0.000000
   35  O  1 XYZ   0.000000  -0.000000  -0.000000   0.020158   0.000000
   36  O  1  S    0.000000  -0.000000  -0.539873   0.000000   2.296701
   37  O  1  X    0.000000   1.164349  -0.000000   0.000000   0.000000
   38  O  1  Y    3.531526  -0.000000  -0.000000   0.000000   0.000000
   39  O  1  Z    0.000000  -0.000000   1.156717   0.000000  -1.514117
   40  O  1 XX    0.000000  -0.000000   0.783101   0.000000   0.427536
   41  O  1 YY    0.000000  -0.000000   0.081615   0.000000  -2.168950
   42  O  1 ZZ    0.000000  -0.000000  -0.864716   0.000000   1.741414
   43  O  1 XY    0.000000  -0.000000  -0.000000   1.987642   0.000000
   44  O  1 XZ    0.000000  -0.866247  -0.000000   0.000000   0.000000
   45  O  1 YZ   -1.823374  -0.000000  -0.000000   0.000000   0.000000
   46  O  1 XXX   0.000000  -0.046854  -0.000000   0.000000   0.000000
   47  O  1 YYY   0.008768  -0.000000  -0.000000   0.000000   0.000000
   48  O  1 ZZZ   0.000000  -0.000000  -0.048780   0.000000  -0.140780
   49  O  1 XXY  -0.125780  -0.000000  -0.000000   0.000000   0.000000
   50  O  1 XXZ   0.000000  -0.000000  -0.039637   0.000000   0.013215
   51  O  1 YYX   0.000000   0.075495  -0.000000   0.000000   0.000000
   52  O  1 YYZ   0.000000  -0.000000   0.105082   0.000000   0.175660
   53  O  1 ZZX   0.000000  -0.012634  -0.000000   0.000000   0.000000
   54  O  1 ZZY   0.114016  -0.000000  -0.000000   0.000000   0.000000
   55  O  1 XYZ   0.000000  -0.000000  -0.000000  -0.160061   0.000000
   56  H  2  S   -0.114175  -0.000000   0.022158   0.000000   0.050797
   57  H  2  S    1.150505  -0.000000   0.615758   0.000000   1.838632
   58  H  2  S    6.747389  -0.000000   0.143939   0.000000  -2.137196
   59  H  2  X    0.000000   0.004726  -0.000000  -0.032399   0.000000
   60  H  2  Y   -0.022196  -0.000000   0.000902   0.000000   0.043078
   61  H  2  Z    0.000130  -0.000000   0.014139   0.000000  -0.029277
   62  H  2  X    0.000000  -0.095816  -0.000000   0.280069   0.000000
   63  H  2  Y    0.693473  -0.000000   0.116606   0.000000  -0.068209
   64  H  2  Z    0.227156  -0.000000  -0.053763   0.000000   0.360203
   65  H  2 XX   -0.022141  -0.000000  -0.011008   0.000000  -0.001410
   66  H  2 YY    0.027804  -0.000000  -0.000372   0.000000   0.009169
   67  H  2 ZZ   -0.005663  -0.000000   0.011379   0.000000  -0.007759
   68  H  2 XY    0.000000  -0.009525  -0.000000   0.005191   0.000000
   69  H  2 XZ    0.000000   0.009280  -0.000000  -0.004370   0.000000
   70  H  2 YZ    0.011958  -0.000000  -0.001839   0.000000  -0.001973
   71  H  2  S    1.240207  -0.000000   0.018004   0.000000   0.007113
   72  H  2  X    0.000000  -0.838950  -0.000000   1.399428   0.000000
   73  H  2  Y    1.665228  -0.000000   0.115130   0.000000  -1.013845
   74  H  2  Z    0.372057  -0.000000  -0.885828   0.000000   0.936179
   75  H  2 XX    0.085651  -0.000000   0.169943   0.000000   0.167811
   76  H  2 YY    0.112697  -0.000000   0.144832   0.000000  -0.530698
   77  H  2 ZZ   -0.198348  -0.000000  -0.314775   0.000000   0.362887
   78  H  2 XY    0.000000   0.056670  -0.000000   0.537087   0.000000
   79  H  2 XZ    0.000000  -0.268134  -0.000000   0.280439   0.000000
   80  H  2 YZ   -0.098091  -0.000000   0.042308   0.000000   0.491350
   81  H  3  S    0.114175  -0.000000   0.022158   0.000000   0.050797
   82  H  3  S   -1.150505  -0.000000   0.615758   0.000000   1.838632
   83  H  3  S   -6.747389  -0.000000   0.143939   0.000000  -2.137196
   84  H  3  X    0.000000   0.004726  -0.000000   0.032399   0.000000
   85  H  3  Y   -0.022196  -0.000000  -0.000902   0.000000  -0.043078
   86  H  3  Z   -0.000130  -0.000000   0.014139   0.000000  -0.029277
   87  H  3  X    0.000000  -0.095816  -0.000000  -0.280069   0.000000
   88  H  3  Y    0.693473  -0.000000  -0.116606   0.000000   0.068209
   89  H  3  Z   -0.227156  -0.000000  -0.053763   0.000000   0.360203
   90  H  3 XX    0.022141  -0.000000  -0.011008   0.000000  -0.001410
   91  H  3 YY   -0.027804  -0.000000  -0.000372   0.000000   0.009169
   92  H  3 ZZ    0.005663  -0.000000   0.011379   0.000000  -0.007759
   93  H  3 XY    0.000000   0.009525  -0.000000   0.005191   0.000000
   94  H  3 XZ    0.000000   0.009280  -0.000000   0.004370   0.000000
   95  H  3 YZ    0.011958  -0.000000   0.001839   0.000000   0.001973
   96  H  3  S   -1.240207  -0.000000   0.018004   0.000000   0.007113
   97  H  3  X    0.000000  -0.838950  -0.000000  -1.399428   0.000000
   98  H  3  Y    1.665228  -0.000000  -0.115130   0.000000   1.013845
   99  H  3  Z   -0.372057  -0.000000  -0.885828   0.000000   0.936179
  100  H  3 XX   -0.085651  -0.000000   0.169943   0.000000   0.167811
  101  H  3 YY   -0.112697  -0.000000   0.144832   0.000000  -0.530698
  102  H  3 ZZ    0.198348  -0.000000  -0.314775   0.000000   0.362887
  103  H  3 XY    0.000000  -0.056670  -0.000000   0.537087   0.000000
  104  H  3 XZ    0.000000  -0.268134  -0.000000  -0.280439   0.000000
  105  H  3 YZ   -0.098091  -0.000000  -0.042308   0.000000  -0.491350

                     26         27         28         29         30
                    0.5586     0.5658     0.5879     0.5989     0.6232
                     B1         B2         B1         A2         A1  
    1  O  1  S   -0.000000   0.000000  -0.000000   0.000000  -0.079276
    2  O  1  S   -0.000000   0.000000  -0.000000   0.000000  -0.060454
    3  O  1  S   -0.000000   0.000000  -0.000000   0.000000  -0.087401
    4  O  1  S   -0.000000   0.000000  -0.000000   0.000000   6.665206
    5  O  1  X   -0.245385   0.000000   0.047184   0.000000   0.000000
    6  O  1  Y   -0.000000  -0.089217  -0.000000   0.000000   0.000000
    7  O  1  Z   -0.000000   0.000000  -0.000000   0.000000   0.220009
    8  O  1  X   -0.717996   0.000000   0.116867   0.000000   0.000000
    9  O  1  Y   -0.000000  -0.134419  -0.000000   0.000000   0.000000
   10  O  1  Z   -0.000000   0.000000  -0.000000   0.000000   0.337555
   11  O  1  X    2.918030   0.000000   1.645050   0.000000   0.000000
   12  O  1  Y   -0.000000  -0.374866  -0.000000   0.000000   0.000000
   13  O  1  Z   -0.000000   0.000000  -0.000000   0.000000  -4.776473
   14  O  1 XX   -0.000000   0.000000  -0.000000   0.000000   0.023708
   15  O  1 YY   -0.000000   0.000000  -0.000000   0.000000  -0.022418
   16  O  1 ZZ   -0.000000   0.000000  -0.000000   0.000000  -0.001289
   17  O  1 XY   -0.000000   0.000000  -0.000000  -0.012102   0.000000
   18  O  1 XZ    0.000775   0.000000  -0.014225   0.000000   0.000000
   19  O  1 YZ   -0.000000   0.012572  -0.000000   0.000000   0.000000
   20  O  1 XX   -0.000000   0.000000  -0.000000   0.000000  -0.317123
   21  O  1 YY   -0.000000   0.000000  -0.000000   0.000000   0.388845
   22  O  1 ZZ   -0.000000   0.000000  -0.000000   0.000000  -0.071722
   23  O  1 XY   -0.000000   0.000000  -0.000000   0.049605   0.000000
   24  O  1 XZ   -0.047654   0.000000  -0.006503   0.000000   0.000000
   25  O  1 YZ   -0.000000  -0.037271  -0.000000   0.000000   0.000000
   26  O  1 XXX   0.007503   0.000000   0.015161   0.000000   0.000000
   27  O  1 YYY  -0.000000   0.008648  -0.000000   0.000000   0.000000
   28  O  1 ZZZ  -0.000000   0.000000  -0.000000   0.000000   0.000907
   29  O  1 XXY  -0.000000  -0.028069  -0.000000   0.000000   0.000000
   30  O  1 XXZ  -0.000000   0.000000  -0.000000   0.000000  -0.002048
   31  O  1 YYX  -0.014890   0.000000  -0.003693   0.000000   0.000000
   32  O  1 YYZ  -0.000000   0.000000  -0.000000   0.000000   0.000832
   33  O  1 ZZX   0.004824   0.000000  -0.016647   0.000000   0.000000
   34  O  1 ZZY  -0.000000   0.016466  -0.000000   0.000000   0.000000
   35  O  1 XYZ  -0.000000   0.000000  -0.000000  -0.003947   0.000000
   36  O  1  S   -0.000000   0.000000  -0.000000   0.000000   8.957448
   37  O  1  X    0.613818   0.000000   1.200637   0.000000   0.000000
   38  O  1  Y   -0.000000   1.174970  -0.000000   0.000000   0.000000
   39  O  1  Z   -0.000000   0.000000  -0.000000   0.000000  -1.153264
   40  O  1 XX   -0.000000   0.000000  -0.000000   0.000000  -1.141760
   41  O  1 YY   -0.000000   0.000000  -0.000000   0.000000   0.874796
   42  O  1 ZZ   -0.000000   0.000000  -0.000000   0.000000   0.266964
   43  O  1 XY   -0.000000   0.000000  -0.000000   0.475423   0.000000
   44  O  1 XZ   -0.597896   0.000000  -1.378950   0.000000   0.000000
   45  O  1 YZ   -0.000000   1.228687  -0.000000   0.000000   0.000000
   46  O  1 XXX  -0.106516   0.000000  -0.102942   0.000000   0.000000
   47  O  1 YYY  -0.000000  -0.005804  -0.000000   0.000000   0.000000
   48  O  1 ZZZ  -0.000000   0.000000  -0.000000   0.000000   0.166322
   49  O  1 XXY  -0.000000   0.121827  -0.000000   0.000000   0.000000
   50  O  1 XXZ  -0.000000   0.000000  -0.000000   0.000000   0.157296
   51  O  1 YYX   0.149400   0.000000   0.056438   0.000000   0.000000
   52  O  1 YYZ  -0.000000   0.000000  -0.000000   0.000000  -0.380440
   53  O  1 ZZX  -0.006494   0.000000   0.081674   0.000000   0.000000
   54  O  1 ZZY  -0.000000  -0.114040  -0.000000   0.000000   0.000000
   55  O  1 XYZ  -0.000000   0.000000  -0.000000   0.007233   0.000000
   56  H  2  S   -0.000000  -0.038362  -0.000000   0.000000   0.075811
   57  H  2  S   -0.000000  -1.441173  -0.000000   0.000000  -2.715432
   58  H  2  S   -0.000000   1.895835  -0.000000   0.000000  -5.357506
   59  H  2  X    0.010514   0.000000   0.017776  -0.003817   0.000000
   60  H  2  Y   -0.000000  -0.004489  -0.000000   0.000000  -0.010625
   61  H  2  Z   -0.000000  -0.011424  -0.000000   0.000000  -0.022452
   62  H  2  X   -0.169501   0.000000  -0.082663  -0.057940   0.000000
   63  H  2  Y   -0.000000  -0.004323  -0.000000   0.000000  -1.339416
   64  H  2  Z   -0.000000   0.146146  -0.000000   0.000000  -0.459828
   65  H  2 XX   -0.000000  -0.025851  -0.000000   0.000000   0.031584
   66  H  2 YY   -0.000000   0.005174  -0.000000   0.000000  -0.060746
   67  H  2 ZZ   -0.000000   0.020677  -0.000000   0.000000   0.029161
   68  H  2 XY   -0.020228   0.000000   0.029346  -0.003637   0.000000
   69  H  2 XZ   -0.015101   0.000000  -0.015981  -0.040216   0.000000
   70  H  2 YZ   -0.000000   0.006611  -0.000000   0.000000  -0.064636
   71  H  2  S   -0.000000   0.233971  -0.000000   0.000000  -0.452485
   72  H  2  X   -1.264940   0.000000  -1.250733   0.495304   0.000000
   73  H  2  Y   -0.000000   0.022936  -0.000000   0.000000  -1.731515
   74  H  2  Z   -0.000000   0.836932  -0.000000   0.000000  -0.001308
   75  H  2 XX   -0.000000   0.460484  -0.000000   0.000000   0.394083
   76  H  2 YY   -0.000000  -0.183416  -0.000000   0.000000  -0.760463
   77  H  2 ZZ   -0.000000  -0.277068  -0.000000   0.000000   0.366380
   78  H  2 XY   -0.406767   0.000000  -1.049767   0.269013   0.000000
   79  H  2 XZ   -0.221967   0.000000   0.181471   0.891659   0.000000
   80  H  2 YZ   -0.000000   0.276518  -0.000000   0.000000   0.031116
   81  H  3  S   -0.000000   0.038362  -0.000000   0.000000   0.075811
   82  H  3  S   -0.000000   1.441173  -0.000000   0.000000  -2.715432
   83  H  3  S   -0.000000  -1.895835  -0.000000   0.000000  -5.357506
   84  H  3  X    0.010514   0.000000   0.017776   0.003817   0.000000
   85  H  3  Y   -0.000000  -0.004489  -0.000000   0.000000   0.010625
   86  H  3  Z   -0.000000   0.011424  -0.000000   0.000000  -0.022452
   87  H  3  X   -0.169501   0.000000  -0.082663   0.057940   0.000000
   88  H  3  Y   -0.000000  -0.004323  -0.000000   0.000000   1.339416
   89  H  3  Z   -0.000000  -0.146146  -0.000000   0.000000  -0.459828
   90  H  3 XX   -0.000000   0.025851  -0.000000   0.000000   0.031584
   91  H  3 YY   -0.000000  -0.005174  -0.000000   0.000000  -0.060746
   92  H  3 ZZ   -0.000000  -0.020677  -0.000000   0.000000   0.029161
   93  H  3 XY    0.020228   0.000000  -0.029346  -0.003637   0.000000
   94  H  3 XZ   -0.015101   0.000000  -0.015981   0.040216   0.000000
   95  H  3 YZ   -0.000000   0.006611  -0.000000   0.000000   0.064636
   96  H  3  S   -0.000000  -0.233971  -0.000000   0.000000  -0.452485
   97  H  3  X   -1.264940   0.000000  -1.250733  -0.495304   0.000000
   98  H  3  Y   -0.000000   0.022936  -0.000000   0.000000   1.731515
   99  H  3  Z   -0.000000  -0.836932  -0.000000   0.000000  -0.001308
  100  H  3 XX   -0.000000  -0.460484  -0.000000   0.000000   0.394083
  101  H  3 YY   -0.000000   0.183416  -0.000000   0.000000  -0.760463
  102  H  3 ZZ   -0.000000   0.277068  -0.000000   0.000000   0.366380
  103  H  3 XY    0.406767   0.000000   1.049767   0.269013   0.000000
  104  H  3 XZ   -0.221967   0.000000   0.181471  -0.891659   0.000000
  105  H  3 YZ   -0.000000   0.276518  -0.000000   0.000000  -0.031116

                     31         32         33         34         35
                    0.6578     0.7078     0.7316     0.7326     0.7431
                     B2         A1         B2         A1         B1  
    1  O  1  S   -0.000000  -0.029924   0.000000  -0.025355   0.000000
    2  O  1  S   -0.000000  -0.226042   0.000000  -0.169116   0.000000
    3  O  1  S   -0.000000  -0.065021   0.000000  -0.051456   0.000000
    4  O  1  S   -0.000000   3.578837   0.000000   3.535095   0.000000
    5  O  1  X   -0.000000  -0.000000   0.000000   0.000000   0.048041
    6  O  1  Y   -0.141068  -0.000000  -0.155942   0.000000   0.000000
    7  O  1  Z   -0.000000   0.057132   0.000000   0.001935   0.000000
    8  O  1  X   -0.000000  -0.000000   0.000000   0.000000   0.139826
    9  O  1  Y   -0.129049  -0.000000  -0.001186   0.000000   0.000000
   10  O  1  Z   -0.000000  -0.038287   0.000000  -0.174663   0.000000
   11  O  1  X   -0.000000  -0.000000   0.000000   0.000000   1.592233
   12  O  1  Y    2.810488  -0.000000   1.274005   0.000000   0.000000
   13  O  1  Z   -0.000000   0.335303   0.000000   1.028922   0.000000
   14  O  1 XX   -0.000000   0.009485   0.000000  -0.014509   0.000000
   15  O  1 YY   -0.000000   0.001848   0.000000   0.000685   0.000000
   16  O  1 ZZ   -0.000000  -0.011333   0.000000   0.013823   0.000000
   17  O  1 XY   -0.000000  -0.000000   0.000000   0.000000   0.000000
   18  O  1 XZ   -0.000000  -0.000000   0.000000   0.000000   0.021499
   19  O  1 YZ    0.006440  -0.000000   0.005890   0.000000   0.000000
   20  O  1 XX   -0.000000  -0.081213   0.000000   0.002032   0.000000
   21  O  1 YY   -0.000000   0.072045   0.000000   0.071758   0.000000
   22  O  1 ZZ   -0.000000   0.009168   0.000000  -0.073791   0.000000
   23  O  1 XY   -0.000000  -0.000000   0.000000   0.000000   0.000000
   24  O  1 XZ   -0.000000  -0.000000   0.000000   0.000000  -0.076366
   25  O  1 YZ   -0.090854  -0.000000  -0.126565   0.000000   0.000000
   26  O  1 XXX  -0.000000  -0.000000   0.000000   0.000000   0.016625
   27  O  1 YYY  -0.023112  -0.000000   0.005813   0.000000   0.000000
   28  O  1 ZZZ  -0.000000   0.000648   0.000000   0.015413   0.000000
   29  O  1 XXY   0.004657  -0.000000  -0.010733   0.000000   0.000000
   30  O  1 XXZ  -0.000000   0.015111   0.000000   0.002260   0.000000
   31  O  1 YYX  -0.000000  -0.000000   0.000000   0.000000  -0.030055
   32  O  1 YYZ  -0.000000  -0.015980   0.000000  -0.022939   0.000000
   33  O  1 ZZX  -0.000000  -0.000000   0.000000   0.000000   0.007750
   34  O  1 ZZY   0.026352  -0.000000   0.002934   0.000000   0.000000
   35  O  1 XYZ  -0.000000  -0.000000   0.000000   0.000000   0.000000
   36  O  1  S   -0.000000   4.797828   0.000000   1.531654   0.000000
   37  O  1  X   -0.000000  -0.000000   0.000000   0.000000   0.579739
   38  O  1  Y    3.157299  -0.000000   0.191359   0.000000   0.000000
   39  O  1  Z   -0.000000  -0.215290   0.000000   0.440186   0.000000
   40  O  1 XX   -0.000000   1.858890   0.000000  -0.302109   0.000000
   41  O  1 YY   -0.000000  -1.447850   0.000000  -0.193362   0.000000
   42  O  1 ZZ   -0.000000  -0.411040   0.000000   0.495471   0.000000
   43  O  1 XY   -0.000000  -0.000000   0.000000   0.000000   0.000000
   44  O  1 XZ   -0.000000  -0.000000   0.000000   0.000000   0.592575
   45  O  1 YZ    1.085760  -0.000000   0.280839   0.000000   0.000000
   46  O  1 XXX  -0.000000  -0.000000   0.000000   0.000000  -0.115541
   47  O  1 YYY   0.223775  -0.000000  -0.032384   0.000000   0.000000
   48  O  1 ZZZ  -0.000000  -0.044876   0.000000  -0.099577   0.000000
   49  O  1 XXY  -0.088998  -0.000000   0.055400   0.000000   0.000000
   50  O  1 XXZ  -0.000000  -0.091404   0.000000  -0.042219   0.000000
   51  O  1 YYX  -0.000000  -0.000000   0.000000   0.000000   0.189834
   52  O  1 YYZ  -0.000000   0.151612   0.000000   0.175816   0.000000
   53  O  1 ZZX  -0.000000  -0.000000   0.000000   0.000000  -0.034819
   54  O  1 ZZY  -0.211227  -0.000000  -0.011952   0.000000   0.000000
   55  O  1 XYZ  -0.000000  -0.000000   0.000000   0.000000   0.000000
   56  H  2  S   -0.073377   0.069841  -0.062483   0.057352   0.000000
   57  H  2  S   -0.235432   1.709052  -0.005081   0.262758   0.000000
   58  H  2  S    5.190521  -4.076447   4.723351  -1.665668   0.000000
   59  H  2  X   -0.000000  -0.000000   0.000000   0.000000  -0.005493
   60  H  2  Y   -0.006222   0.021716  -0.018884   0.025437   0.000000
   61  H  2  Z   -0.003094   0.009099  -0.016951   0.008238   0.000000
   62  H  2  X   -0.000000  -0.000000   0.000000   0.000000  -0.016510
   63  H  2  Y    0.390097   0.009722   0.177754  -0.063979   0.000000
   64  H  2  Z    0.273945   0.033955   0.317392   0.053638   0.000000
   65  H  2 XX    0.004209   0.026851  -0.001307  -0.022449   0.000000
   66  H  2 YY    0.006746   0.005500  -0.007641   0.008297   0.000000
   67  H  2 ZZ   -0.010955  -0.032351   0.008948   0.014152   0.000000
   68  H  2 XY   -0.000000  -0.000000   0.000000   0.000000  -0.001605
   69  H  2 XZ   -0.000000  -0.000000   0.000000   0.000000   0.023939
   70  H  2 YZ    0.019006   0.013674   0.006767  -0.000110   0.000000
   71  H  2  S    1.046693  -0.274267   0.604337  -0.143767   0.000000
   72  H  2  X   -0.000000  -0.000000   0.000000   0.000000  -0.804397
   73  H  2  Y    0.537087  -2.046949   2.991977  -1.107180   0.000000
   74  H  2  Z    2.214139  -1.108511   0.658622  -1.192894   0.000000
   75  H  2 XX   -0.496419  -0.162935  -0.583259   0.994436   0.000000
   76  H  2 YY   -0.407333  -0.588752   1.089978  -0.497866   0.000000
   77  H  2 ZZ    0.903751   0.751687  -0.506718  -0.496570   0.000000
   78  H  2 XY   -0.000000  -0.000000   0.000000   0.000000  -0.564995
   79  H  2 XZ   -0.000000  -0.000000   0.000000   0.000000  -1.012473
   80  H  2 YZ    0.716768  -0.922884   0.694337  -0.695859   0.000000
   81  H  3  S    0.073377   0.069841   0.062483   0.057352   0.000000
   82  H  3  S    0.235432   1.709052   0.005081   0.262758   0.000000
   83  H  3  S   -5.190521  -4.076447  -4.723351  -1.665668   0.000000
   84  H  3  X   -0.000000  -0.000000   0.000000   0.000000  -0.005493
   85  H  3  Y   -0.006222  -0.021716  -0.018884  -0.025437   0.000000
   86  H  3  Z    0.003094   0.009099   0.016951   0.008238   0.000000
   87  H  3  X   -0.000000  -0.000000   0.000000   0.000000  -0.016510
   88  H  3  Y    0.390097  -0.009722   0.177754   0.063979   0.000000
   89  H  3  Z   -0.273945   0.033955  -0.317392   0.053638   0.000000
   90  H  3 XX   -0.004209   0.026851   0.001307  -0.022449   0.000000
   91  H  3 YY   -0.006746   0.005500   0.007641   0.008297   0.000000
   92  H  3 ZZ    0.010955  -0.032351  -0.008948   0.014152   0.000000
   93  H  3 XY   -0.000000  -0.000000   0.000000   0.000000   0.001605
   94  H  3 XZ   -0.000000  -0.000000   0.000000   0.000000   0.023939
   95  H  3 YZ    0.019006  -0.013674   0.006767   0.000110   0.000000
   96  H  3  S   -1.046693  -0.274267  -0.604337  -0.143767   0.000000
   97  H  3  X   -0.000000  -0.000000   0.000000   0.000000  -0.804397
   98  H  3  Y    0.537087   2.046949   2.991977   1.107180   0.000000
   99  H  3  Z   -2.214139  -1.108511  -0.658622  -1.192894   0.000000
  100  H  3 XX    0.496419  -0.162935   0.583259   0.994436   0.000000
  101  H  3 YY    0.407333  -0.588752  -1.089978  -0.497866   0.000000
  102  H  3 ZZ   -0.903751   0.751687   0.506718  -0.496570   0.000000
  103  H  3 XY   -0.000000  -0.000000   0.000000   0.000000   0.564995
  104  H  3 XZ   -0.000000  -0.000000   0.000000   0.000000  -1.012473
  105  H  3 YZ    0.716768   0.922884   0.694337   0.695859   0.000000

                     36         37         38         39         40
                    0.7775     0.8016     0.8258     1.0508     1.1838
                     A1         A2         B2         B2         A2  
    1  O  1  S    0.006613  -0.000000  -0.000000  -0.000000   0.000000
    2  O  1  S    0.024681  -0.000000  -0.000000  -0.000000   0.000000
    3  O  1  S   -0.005987  -0.000000  -0.000000  -0.000000   0.000000
    4  O  1  S    0.357939  -0.000000  -0.000000  -0.000000   0.000000
    5  O  1  X    0.000000  -0.000000  -0.000000  -0.000000   0.000000
    6  O  1  Y    0.000000  -0.000000  -0.103598  -0.051619   0.000000
    7  O  1  Z    0.126875  -0.000000  -0.000000  -0.000000   0.000000
    8  O  1  X    0.000000  -0.000000  -0.000000  -0.000000   0.000000
    9  O  1  Y    0.000000  -0.000000  -0.215890  -0.014063   0.000000
   10  O  1  Z    0.330981  -0.000000  -0.000000  -0.000000   0.000000
   11  O  1  X    0.000000  -0.000000  -0.000000  -0.000000   0.000000
   12  O  1  Y    0.000000  -0.000000   1.734226   8.914749   0.000000
   13  O  1  Z    1.077723  -0.000000  -0.000000  -0.000000   0.000000
   14  O  1 XX    0.006194  -0.000000  -0.000000  -0.000000   0.000000
   15  O  1 YY   -0.026436  -0.000000  -0.000000  -0.000000   0.000000
   16  O  1 ZZ    0.020242  -0.000000  -0.000000  -0.000000   0.000000
   17  O  1 XY    0.000000  -0.030893  -0.000000  -0.000000  -0.018790
   18  O  1 XZ    0.000000  -0.000000  -0.000000  -0.000000   0.000000
   19  O  1 YZ    0.000000  -0.000000   0.028171   0.050096   0.000000
   20  O  1 XX   -0.052791  -0.000000  -0.000000  -0.000000   0.000000
   21  O  1 YY    0.115975  -0.000000  -0.000000  -0.000000   0.000000
   22  O  1 ZZ   -0.063185  -0.000000  -0.000000  -0.000000   0.000000
   23  O  1 XY    0.000000   0.070019  -0.000000  -0.000000  -0.171197
   24  O  1 XZ    0.000000  -0.000000  -0.000000  -0.000000   0.000000
   25  O  1 YZ    0.000000  -0.000000  -0.161622  -0.258179   0.000000
   26  O  1 XXX   0.000000  -0.000000  -0.000000  -0.000000   0.000000
   27  O  1 YYY   0.000000  -0.000000  -0.001341   0.018719   0.000000
   28  O  1 ZZZ   0.001947  -0.000000  -0.000000  -0.000000   0.000000
   29  O  1 XXY   0.000000  -0.000000   0.002369   0.008037   0.000000
   30  O  1 XXZ   0.014647  -0.000000  -0.000000  -0.000000   0.000000
   31  O  1 YYX   0.000000  -0.000000  -0.000000  -0.000000   0.000000
   32  O  1 YYZ  -0.017260  -0.000000  -0.000000  -0.000000   0.000000
   33  O  1 ZZX   0.000000  -0.000000  -0.000000  -0.000000   0.000000
   34  O  1 ZZY   0.000000  -0.000000  -0.000570  -0.033151   0.000000
   35  O  1 XYZ   0.000000   0.023241  -0.000000  -0.000000   0.019321
   36  O  1  S    2.732730  -0.000000  -0.000000  -0.000000   0.000000
   37  O  1  X    0.000000  -0.000000  -0.000000  -0.000000   0.000000
   38  O  1  Y    0.000000  -0.000000   0.113401   2.014402   0.000000
   39  O  1  Z   -0.140849  -0.000000  -0.000000  -0.000000   0.000000
   40  O  1 XX    0.323210  -0.000000  -0.000000  -0.000000   0.000000
   41  O  1 YY   -0.032263  -0.000000  -0.000000  -0.000000   0.000000
   42  O  1 ZZ   -0.290948  -0.000000  -0.000000  -0.000000   0.000000
   43  O  1 XY    0.000000   0.141252  -0.000000  -0.000000   3.109241
   44  O  1 XZ    0.000000  -0.000000  -0.000000  -0.000000   0.000000
   45  O  1 YZ    0.000000  -0.000000   0.577320  -4.927524   0.000000
   46  O  1 XXX   0.000000  -0.000000  -0.000000  -0.000000   0.000000
   47  O  1 YYY   0.000000  -0.000000   0.113964  -0.020789   0.000000
   48  O  1 ZZZ   0.000080  -0.000000  -0.000000  -0.000000   0.000000
   49  O  1 XXY   0.000000  -0.000000  -0.099546  -0.261768   0.000000
   50  O  1 XXZ  -0.056264  -0.000000  -0.000000  -0.000000   0.000000
   51  O  1 YYX   0.000000  -0.000000  -0.000000  -0.000000   0.000000
   52  O  1 YYZ   0.056156  -0.000000  -0.000000  -0.000000   0.000000
   53  O  1 ZZX   0.000000  -0.000000  -0.000000  -0.000000   0.000000
   54  O  1 ZZY   0.000000  -0.000000  -0.053352   0.289659   0.000000
   55  O  1 XYZ   0.000000  -0.135584  -0.000000  -0.000000  -0.141910
   56  H  2  S    0.008940  -0.000000  -0.001948   0.009710   0.000000
   57  H  2  S    0.514717  -0.000000   0.066187   6.290532   0.000000
   58  H  2  S   -1.833904  -0.000000   3.059609   4.992067   0.000000
   59  H  2  X    0.000000  -0.001311  -0.000000  -0.000000  -0.073277
   60  H  2  Y   -0.006758  -0.000000   0.017783  -0.021730   0.000000
   61  H  2  Z    0.013493  -0.000000  -0.010570   0.029295   0.000000
   62  H  2  X    0.000000   0.157437  -0.000000  -0.000000   1.875917
[...]
    2  O  1  S    0.000000   0.000000   0.066501   0.000000   0.000000
    3  O  1  S    0.000000   0.000000   0.027611   0.000000   0.000000
    4  O  1  S    0.000000   0.000000  -0.506470   0.000000   0.000000
    5  O  1  X    0.000000   0.000000   0.000000   0.000000  -0.066087
    6  O  1  Y    0.132776   0.030306   0.000000   0.000000   0.000000
    7  O  1  Z    0.000000   0.000000   0.014275   0.000000   0.000000
    8  O  1  X    0.000000   0.000000   0.000000   0.000000  -0.044613
    9  O  1  Y    0.132501   0.006967   0.000000   0.000000   0.000000
   10  O  1  Z    0.000000   0.000000   0.043098   0.000000   0.000000
   11  O  1  X    0.000000   0.000000   0.000000   0.000000  -1.223675
   12  O  1  Y   -0.142995  -1.090763   0.000000   0.000000   0.000000
   13  O  1  Z    0.000000   0.000000  -0.049702   0.000000   0.000000
   14  O  1 XX    0.000000   0.000000  -0.003863   0.000000   0.000000
   15  O  1 YY    0.000000   0.000000   0.008571   0.000000   0.000000
   16  O  1 ZZ    0.000000   0.000000  -0.004708   0.000000   0.000000
   17  O  1 XY    0.000000   0.000000   0.000000   0.008362   0.000000
   18  O  1 XZ    0.000000   0.000000   0.000000   0.000000  -0.008203
   19  O  1 YZ    0.005017  -0.007561   0.000000   0.000000   0.000000
   20  O  1 XX    0.000000   0.000000   0.010706   0.000000   0.000000
   21  O  1 YY    0.000000   0.000000  -0.007334   0.000000   0.000000
   22  O  1 ZZ    0.000000   0.000000  -0.003372   0.000000   0.000000
   23  O  1 XY    0.000000   0.000000   0.000000   0.016061   0.000000
   24  O  1 XZ    0.000000   0.000000   0.000000   0.000000  -0.004132
   25  O  1 YZ    0.048991   0.025129   0.000000   0.000000   0.000000
   26  O  1 XXX   0.000000   0.000000   0.000000   0.000000  -0.008864
   27  O  1 YYY   0.000629  -0.000288   0.000000   0.000000   0.000000
   28  O  1 ZZZ   0.000000   0.000000   0.002851   0.000000   0.000000
   29  O  1 XXY   0.004083  -0.002565   0.000000   0.000000   0.000000
   30  O  1 XXZ   0.000000   0.000000  -0.001293   0.000000   0.000000
   31  O  1 YYX   0.000000   0.000000   0.000000   0.000000   0.005907
   32  O  1 YYZ   0.000000   0.000000  -0.002532   0.000000   0.000000
   33  O  1 ZZX   0.000000   0.000000   0.000000   0.000000   0.005985
   34  O  1 ZZY  -0.004927   0.002951   0.000000   0.000000   0.000000
   35  O  1 XYZ   0.000000   0.000000   0.000000  -0.008397   0.000000
   36  O  1  S    0.000000   0.000000  -4.342794   0.000000   0.000000
   37  O  1  X    0.000000   0.000000   0.000000   0.000000  -2.157565
   38  O  1  Y   -0.677326  -3.116733   0.000000   0.000000   0.000000
   39  O  1  Z    0.000000   0.000000  -0.351163   0.000000   0.000000
   40  O  1 XX    0.000000   0.000000   0.119016   0.000000   0.000000
   41  O  1 YY    0.000000   0.000000  -0.469864   0.000000   0.000000
   42  O  1 ZZ    0.000000   0.000000   0.350848   0.000000   0.000000
   43  O  1 XY    0.000000   0.000000   0.000000  -0.410898   0.000000
   44  O  1 XZ    0.000000   0.000000   0.000000   0.000000   0.320971
   45  O  1 YZ   -0.010205   0.506311   0.000000   0.000000   0.000000
   46  O  1 XXX   0.000000   0.000000   0.000000   0.000000   0.057118
   47  O  1 YYY  -0.008495  -0.001541   0.000000   0.000000   0.000000
   48  O  1 ZZZ   0.000000   0.000000  -0.034346   0.000000   0.000000
   49  O  1 XXY   0.004293   0.034430   0.000000   0.000000   0.000000
   50  O  1 XXZ   0.000000   0.000000   0.002298   0.000000   0.000000
   51  O  1 YYX   0.000000   0.000000   0.000000   0.000000  -0.050688
   52  O  1 YYZ   0.000000   0.000000   0.043782   0.000000   0.000000
   53  O  1 ZZX   0.000000   0.000000   0.000000   0.000000  -0.025943
   54  O  1 ZZY   0.007104  -0.032363   0.000000   0.000000   0.000000
   55  O  1 XYZ   0.000000   0.000000   0.000000   0.054391   0.000000
   56  H  2  S    0.069323  -0.030502   0.034846   0.000000   0.000000
   57  H  2  S    0.072566  -0.754361   0.403928   0.000000   0.000000
   58  H  2  S   -0.745566  -2.536509   1.881458   0.000000   0.000000
   59  H  2  X    0.000000   0.000000   0.000000  -0.002262  -0.000338
   60  H  2  Y   -0.005081  -0.005177   0.003863   0.000000   0.000000
   61  H  2  Z   -0.007569   0.002487   0.000177   0.000000   0.000000
   62  H  2  X    0.000000   0.000000   0.000000  -0.185671   0.212608
   63  H  2  Y   -0.082181  -0.164426  -0.009087   0.000000   0.000000
   64  H  2  Z   -0.101141  -0.094252   0.214443   0.000000   0.000000
   65  H  2 XX    0.003140   0.006646  -0.001615   0.000000   0.000000
   66  H  2 YY   -0.001958  -0.007704   0.001868   0.000000   0.000000
   67  H  2 ZZ   -0.001182   0.001058  -0.000253   0.000000   0.000000
   68  H  2 XY    0.000000   0.000000   0.000000  -0.001734   0.002189
   69  H  2 XZ    0.000000   0.000000   0.000000  -0.000235   0.003362
   70  H  2 YZ   -0.004635  -0.008500   0.011445   0.000000   0.000000
   71  H  2  S   -2.604309  -2.705028   0.410575   0.000000   0.000000
   72  H  2  X    0.000000   0.000000   0.000000  -1.453656   1.686849
   73  H  2  Y   -0.628220  -0.120300  -0.412720   0.000000   0.000000
   74  H  2  Z   -0.694228  -0.048747   0.907536   0.000000   0.000000
   75  H  2 XX    0.050472  -0.058297  -0.015666   0.000000   0.000000
   76  H  2 YY   -0.017874   0.046662  -0.123290   0.000000   0.000000
   77  H  2 ZZ   -0.032598   0.011636   0.138955   0.000000   0.000000
   78  H  2 XY    0.000000   0.000000   0.000000  -0.164553   0.240055
   79  H  2 XZ    0.000000   0.000000   0.000000  -0.146225   0.098692
   80  H  2 YZ   -0.072269   0.014000   0.040940   0.000000   0.000000
   81  H  3  S   -0.069323   0.030502   0.034846   0.000000   0.000000
   82  H  3  S   -0.072566   0.754361   0.403928   0.000000   0.000000
   83  H  3  S    0.745566   2.536509   1.881458   0.000000   0.000000
   84  H  3  X    0.000000   0.000000   0.000000   0.002262  -0.000338
   85  H  3  Y   -0.005081  -0.005177  -0.003863   0.000000   0.000000
   86  H  3  Z    0.007569  -0.002487   0.000177   0.000000   0.000000
   87  H  3  X    0.000000   0.000000   0.000000   0.185671   0.212608
   88  H  3  Y   -0.082181  -0.164426   0.009087   0.000000   0.000000
   89  H  3  Z    0.101141   0.094252   0.214443   0.000000   0.000000
   90  H  3 XX   -0.003140  -0.006646  -0.001615   0.000000   0.000000
   91  H  3 YY    0.001958   0.007704   0.001868   0.000000   0.000000
   92  H  3 ZZ    0.001182  -0.001058  -0.000253   0.000000   0.000000
   93  H  3 XY    0.000000   0.000000   0.000000  -0.001734  -0.002189
   94  H  3 XZ    0.000000   0.000000   0.000000   0.000235   0.003362
   95  H  3 YZ   -0.004635  -0.008500  -0.011445   0.000000   0.000000
   96  H  3  S    2.604309   2.705028   0.410575   0.000000   0.000000
   97  H  3  X    0.000000   0.000000   0.000000   1.453656   1.686849
   98  H  3  Y   -0.628220  -0.120300   0.412720   0.000000   0.000000
   99  H  3  Z    0.694228   0.048747   0.907536   0.000000   0.000000
  100  H  3 XX   -0.050472   0.058297  -0.015666   0.000000   0.000000
  101  H  3 YY    0.017874  -0.046662  -0.123290   0.000000   0.000000
  102  H  3 ZZ    0.032598  -0.011636   0.138955   0.000000   0.000000
  103  H  3 XY    0.000000   0.000000   0.000000  -0.164553  -0.240055
  104  H  3 XZ    0.000000   0.000000   0.000000   0.146225   0.098692
  105  H  3 YZ   -0.072269   0.014000  -0.040940   0.000000   0.000000

     ----------------------------------------------------------------
     PROPERTY VALUES FOR THE ROHF  SELF-CONSISTENT FIELD WAVEFUNCTION
     ----------------------------------------------------------------

          ---------------------------------------
          MULLIKEN AND LOWDIN POPULATION ANALYSES
          ---------------------------------------

          MULLIKEN SPHERICAL HARMONIC POPULATIONS
       ATOM           S       P       D      F      G      H      I    TOTAL
    1 O             1.96    2.43    0.01   0.00   0.00   0.00   0.00    4.40
    2 H             0.25    0.04    0.01   0.00   0.00   0.00   0.00    0.30
    3 H             0.25    0.04    0.01   0.00   0.00   0.00   0.00    0.30

          MULLIKEN SPHERICAL HARMONIC POPULATIONS
       ATOM           S       P       D      F      G      H      I    TOTAL
    1 O             1.96    1.46    0.01   0.00   0.00   0.00   0.00    3.44
    2 H             0.25    0.03    0.01   0.00   0.00   0.00   0.00    0.28
    3 H             0.25    0.03    0.01   0.00   0.00   0.00   0.00    0.28

     ATOMIC SPIN POPULATION (ALPHA MINUS BETA)
       ATOM         MULL.POP.                    LOW.POP.
    1 O             0.967005                     0.863263
    2 H             0.016498                     0.068369
    3 H             0.016498                     0.068369

               ----- POPULATIONS IN EACH AO -----
                             MULLIKEN      LOWDIN
              1  O  1  S      1.94928     1.55361
              2  O  1  S      1.06464     0.51752
              3  O  1  S      0.24918     0.34442
              4  O  1  S      0.60735     0.16814
              5  O  1  X      0.30659     0.28207
              6  O  1  Y      0.40585     0.34774
              7  O  1  Z      0.49293     0.44096
              8  O  1  X      0.48727     0.19616
              9  O  1  Y      0.69925     0.29457
             10  O  1  Z      0.81011     0.34684
             11  O  1  X      0.17205     0.06658
             12  O  1  Y      0.24182     0.14393
             13  O  1  Z      0.26896     0.15086
             14  O  1 XX      0.00028     0.12078
             15  O  1 YY      0.00041     0.11978
             16  O  1 ZZ      0.00000     0.11895
             17  O  1 XY      0.00014     0.00000
             18  O  1 XZ      0.00192     0.00009
             19  O  1 YZ      0.00000     0.00102
             20  O  1 XX      0.00174     0.07534
             21  O  1 YY      0.00162     0.09059
             22  O  1 ZZ      0.00000     0.08325
             23  O  1 XY      0.00072     0.00000
             24  O  1 XZ      0.01203     0.00005
             25  O  1 YZ      0.00000     0.01626
             26  O  1 XXX    -0.00001     0.12594
             27  O  1 YYY     0.00026     0.17805
             28  O  1 ZZZ     0.00001     0.20709
             29  O  1 XXY     0.00009     0.07238
             30  O  1 XXZ    -0.00004     0.09144
             31  O  1 YYX     0.00000     0.05212
             32  O  1 YYZ     0.00009     0.10718
             33  O  1 ZZX     0.00000     0.05204
             34  O  1 ZZY     0.00000     0.08689
             35  O  1 XYZ     0.00000    -0.00000
             36  O  1  S      0.05158     0.03345
             37  O  1  X      0.00003     0.00522
             38  O  1  Y      0.00785     0.01553
             39  O  1  Z      0.00283     0.01607
             40  O  1 XX      0.00035     0.00490
             41  O  1 YY     -0.00139     0.01460
             42  O  1 ZZ      0.00000     0.00879
             43  O  1 XY      0.00024    -0.00000
             44  O  1 XZ      0.00121     0.00000
             45  O  1 YZ      0.00000     0.01259
             46  O  1 XXX    -0.00004     0.04657
             47  O  1 YYY    -0.00013     0.11321
             48  O  1 ZZZ    -0.00000     0.10221
             49  O  1 XXY     0.00001     0.03539
             50  O  1 XXZ     0.00028     0.04246
             51  O  1 YYX     0.00000     0.01798
             52  O  1 YYZ     0.00011     0.07207
             53  O  1 ZZX     0.00000     0.01844
             54  O  1 ZZY     0.00000     0.06580
             55  O  1 XYZ     0.00000     0.00000
             56  H  2  S      0.20858     0.14430
             57  H  2  S      0.32808     0.12943
             58  H  2  S     -0.03934     0.03963
             59  H  2  X      0.00149     0.00236
             60  H  2  Y      0.01009     0.01909
             61  H  2  Z      0.00611     0.01320
             62  H  2  X      0.00984     0.02064
             63  H  2  Y      0.02365     0.06327
             64  H  2  Z      0.01388     0.06122
             65  H  2 XX      0.00128     0.03494
             66  H  2 YY      0.00134     0.08760
             67  H  2 ZZ      0.00089     0.06248
             68  H  2 XY      0.00045     0.00509
             69  H  2 XZ      0.00237     0.00244
             70  H  2 YZ      0.00000     0.01821
             71  H  2  S     -0.00120     0.00433
             72  H  2  X     -0.00027     0.01052
             73  H  2  Y      0.00385     0.03823
             74  H  2  Z     -0.00227     0.03469
             75  H  2 XX      0.00357     0.00537
             76  H  2 YY      0.00243     0.05562
             77  H  2 ZZ      0.00277     0.03190
             78  H  2 XY      0.00133     0.01819
             79  H  2 XZ      0.00235     0.00914
             80  H  2 YZ      0.00000     0.04917
             81  H  3  S      0.20858     0.14430
             82  H  3  S      0.32808     0.12943
             83  H  3  S     -0.03934     0.03963
             84  H  3  X      0.00149     0.00236
             85  H  3  Y      0.01009     0.01909
             86  H  3  Z      0.00611     0.01320
             87  H  3  X      0.00984     0.02064
             88  H  3  Y      0.02365     0.06327
             89  H  3  Z      0.01388     0.06122
             90  H  3 XX      0.00128     0.03494
             91  H  3 YY      0.00134     0.08760
             92  H  3 ZZ      0.00089     0.06248
             93  H  3 XY      0.00045     0.00509
             94  H  3 XZ      0.00237     0.00244
             95  H  3 YZ      0.00000     0.01821
             96  H  3  S     -0.00120     0.00433
             97  H  3  X     -0.00027     0.01052
             98  H  3  Y      0.00385     0.03823
             99  H  3  Z     -0.00227     0.03469
            100  H  3 XX      0.00357     0.00537
            101  H  3 YY      0.00243     0.05562
            102  H  3 ZZ      0.00277     0.03190
            103  H  3 XY      0.00133     0.01819
            104  H  3 XZ      0.00235     0.00914
            105  H  3 YZ      0.00000     0.04917

          ----- MULLIKEN ATOMIC OVERLAP POPULATIONS -----
          (OFF-DIAGONAL ELEMENTS NEED TO BE MULTIPLIED BY 2)

             1           2           3

    1    7.3848803
    2    0.2262894   0.3188833
    3    0.2262894   0.0360978   0.3188833

          TOTAL MULLIKEN AND LOWDIN ATOMIC POPULATIONS
       ATOM         MULL.POP.    CHARGE          LOW.POP.     CHARGE
    1 O             7.837459    0.162541         7.077930    0.922070
    2 H             0.581270    0.418730         0.961035    0.038965
    3 H             0.581270    0.418730         0.961035    0.038965

          MULLIKEN SPHERICAL HARMONIC POPULATIONS
       ATOM           S       P       D      F      G      H      I    TOTAL
    1 O             3.92    3.90    0.02   0.00   0.00   0.00   0.00    7.84
    2 H             0.50    0.07    0.02   0.00   0.00   0.00   0.00    0.58
    3 H             0.50    0.07    0.02   0.00   0.00   0.00   0.00    0.58

          -------------------------------
          BOND ORDER AND VALENCE ANALYSIS     BOND ORDER THRESHOLD=0.050
          -------------------------------

                   BOND                       BOND                       BOND
  ATOM PAIR DIST  ORDER      ATOM PAIR DIST  ORDER      ATOM PAIR DIST  ORDER
    1   2  1.000  0.813        1   3  1.000  0.813

                       TOTAL       BONDED        FREE
      ATOM            VALENCE     VALENCE     VALENCE
    1 O                 2.561       1.626       0.935
    2 H                 0.847       0.847       0.000
    3 H                 0.847       0.847       0.000

          ---------------------
          ELECTROSTATIC MOMENTS
          ---------------------

 POINT   1           X           Y           Z (BOHR)    CHARGE
                -0.000000    0.000000    0.921661        1.00 (A.U.)
         DX          DY          DZ         /D/  (DEBYE)
    -0.000000    0.000000   -2.461389    2.461389
 ...... END OF PROPERTY EVALUATION ......
 STEP CPU TIME =     0.03 TOTAL CPU TIME =     2129.2 (   35.5 MIN)
 TOTAL WALL CLOCK TIME=     2148.9 SECONDS, CPU UTILIZATION IS  99.08%
  $VIB   
          IVIB=   0 IATOM=   0 ICOORD=   0 E=      -75.8750235103
  0.000000000E+00 0.000000000E+00 8.826681070E-06 0.000000000E+00-4.669808683E-06
 -4.413340535E-06 0.000000000E+00 4.669808683E-06-4.413340535E-06
 -1.820035461E-16 3.142498059E-12-2.461388812E+00
 ......END OF GEOMETRY SEARCH......
 STEP CPU TIME =     0.00 TOTAL CPU TIME =     2129.2 (   35.5 MIN)
 TOTAL WALL CLOCK TIME=     2148.9 SECONDS, CPU UTILIZATION IS  99.08%
             27011580  WORDS OF DYNAMIC MEMORY USED
 EXECUTION OF GAMESS TERMINATED NORMALLY Tue Mar  8 19:52:11 2016
 DDI: 263704 bytes (0.3 MB / 0 MWords) used by master data server.

 ----------------------------------------
 CPU timing information for all processes
 ========================================
 0: 1839.21 + 290.150 = 2129.172
 ----------------------------------------
 ddikick.x: exited gracefully.
----- accounting info -----
Files used on the master node Clevo were:
-rw-r--r-- 1 sagar sagar     382996 Mar  8 19:52 /tmp/H2O_ion_ROHF_CCSD_augccpVTZ_geometry.dat
-rw-r--r-- 1 sagar sagar        206 Mar  8 19:16 /tmp/H2O_ion_ROHF_CCSD_augccpVTZ_geometry.F05
-rw-r--r-- 1 sagar sagar   45184016 Mar  8 19:51 /tmp/H2O_ion_ROHF_CCSD_augccpVTZ_geometry.F08
-rw-r--r-- 1 sagar sagar   26855880 Mar  8 19:51 /tmp/H2O_ion_ROHF_CCSD_augccpVTZ_geometry.F09
-rw-r--r-- 1 sagar sagar    3501040 Mar  8 19:52 /tmp/H2O_ion_ROHF_CCSD_augccpVTZ_geometry.F10
-rw-r--r-- 1 sagar sagar    4956160 Mar  8 19:52 /tmp/H2O_ion_ROHF_CCSD_augccpVTZ_geometry.F70
-rw-r--r-- 1 sagar sagar   34693120 Mar  8 19:52 /tmp/H2O_ion_ROHF_CCSD_augccpVTZ_geometry.F71
-rw-r--r-- 1 sagar sagar     619520 Mar  8 19:51 /tmp/H2O_ion_ROHF_CCSD_augccpVTZ_geometry.F72
-rw-r--r-- 1 sagar sagar       2048 Mar  8 19:51 /tmp/H2O_ion_ROHF_CCSD_augccpVTZ_geometry.F74
-rw-r--r-- 1 sagar sagar        648 Mar  8 19:51 /tmp/H2O_ion_ROHF_CCSD_augccpVTZ_geometry.F75
-rw-r--r-- 1 sagar sagar       1152 Mar  8 19:51 /tmp/H2O_ion_ROHF_CCSD_augccpVTZ_geometry.F76
-rw-r--r-- 1 sagar sagar      44544 Mar  8 19:51 /tmp/H2O_ion_ROHF_CCSD_augccpVTZ_geometry.F77
-rw-r--r-- 1 sagar sagar      19008 Mar  8 19:51 /tmp/H2O_ion_ROHF_CCSD_augccpVTZ_geometry.F78
-rw-r--r-- 1 sagar sagar      25056 Mar  8 19:51 /tmp/H2O_ion_ROHF_CCSD_augccpVTZ_geometry.F79
-rw-r--r-- 1 sagar sagar      33792 Mar  8 19:51 /tmp/H2O_ion_ROHF_CCSD_augccpVTZ_geometry.F80
-rw-r--r-- 1 sagar sagar     968832 Mar  8 19:51 /tmp/H2O_ion_ROHF_CCSD_augccpVTZ_geometry.F81
-rw-r--r-- 1 sagar sagar     557568 Mar  8 19:51 /tmp/H2O_ion_ROHF_CCSD_augccpVTZ_geometry.F82
-rw-r--r-- 1 sagar sagar     734976 Mar  8 19:51 /tmp/H2O_ion_ROHF_CCSD_augccpVTZ_geometry.F83
-rw-r--r-- 1 sagar sagar     968832 Mar  8 19:51 /tmp/H2O_ion_ROHF_CCSD_augccpVTZ_geometry.F84
-rw-r--r-- 1 sagar sagar     557568 Mar  8 19:51 /tmp/H2O_ion_ROHF_CCSD_augccpVTZ_geometry.F85
-rw-r--r-- 1 sagar sagar     544968 Mar  8 19:51 /tmp/H2O_ion_ROHF_CCSD_augccpVTZ_geometry.F86
-rw-r--r-- 1 sagar sagar     991232 Mar  8 19:51 /tmp/H2O_ion_ROHF_CCSD_augccpVTZ_geometry.F87
-rw-r--r-- 1 sagar sagar   21072096 Mar  8 19:51 /tmp/H2O_ion_ROHF_CCSD_augccpVTZ_geometry.F88
-rw-r--r-- 1 sagar sagar   16355328 Mar  8 19:51 /tmp/H2O_ion_ROHF_CCSD_augccpVTZ_geometry.F89
-rw-r--r-- 1 sagar sagar   21559296 Mar  8 19:51 /tmp/H2O_ion_ROHF_CCSD_augccpVTZ_geometry.F90
-rw-r--r-- 1 sagar sagar   15985728 Mar  8 19:51 /tmp/H2O_ion_ROHF_CCSD_augccpVTZ_geometry.F91
-rw-r--r-- 1 sagar sagar 1433817088 Mar  8 19:51 /tmp/H2O_ion_ROHF_CCSD_augccpVTZ_geometry.F92
-rw-r--r-- 1 sagar sagar   16850944 Mar  8 19:52 /tmp/H2O_ion_ROHF_CCSD_augccpVTZ_geometry.F93
-rw-r--r-- 1 sagar sagar  130842624 Mar  8 19:52 /tmp/H2O_ion_ROHF_CCSD_augccpVTZ_geometry.F94
Tue Mar  8 19:52:15 WET 2016
0.116u 0.277s 35:52.34 0.0%	0+0k 16+24io 2pf+0w
