----- GAMESS execution script 'rungms' -----
This job is running on host Clevo
under operating system Linux at Tue Mar 8 21:32:54 WET 2016
Available scratch disk space (Kbyte units) at beginning of the job is
Filesystem                                             1K-blocks     Used Available Use% Mounted on
/dev/disk/by-uuid/c2905ecd-da6a-4deb-abcc-9980c215dfc9  34319120 18840628  13712092  58% /
GAMESS temporary binary files will be written to /tmp
GAMESS supplementary output files will be written to .
Copying input file H2O_ROHF_CCSD_augccpVTZ_geometry.inp to your run's scratch directory...

 Distributed Data Interface kickoff program.
 Initiating 1 compute processes on 1 nodes to run the following command:
 /home/sagar/gamess/gamess.01.x H2O_ROHF_CCSD_augccpVTZ_geometry 

          ******************************************************
          *         GAMESS VERSION =  5 DEC 2014 (R1)          *
          *             FROM IOWA STATE UNIVERSITY             *
          * M.W.SCHMIDT, K.K.BALDRIDGE, J.A.BOATZ, S.T.ELBERT, *
          *   M.S.GORDON, J.H.JENSEN, S.KOSEKI, N.MATSUNAGA,   *
          *          K.A.NGUYEN, S.J.SU, T.L.WINDUS,           *
          *       TOGETHER WITH M.DUPUIS, J.A.MONTGOMERY       *
          *         J.COMPUT.CHEM.  14, 1347-1363(1993)        *
          **************** 64 BIT LINUX VERSION ****************

  SINCE 1993, STUDENTS AND POSTDOCS WORKING AT IOWA STATE UNIVERSITY
  AND ALSO IN THEIR VARIOUS JOBS AFTER LEAVING ISU HAVE MADE IMPORTANT
  CONTRIBUTIONS TO THE CODE:
     IVANA ADAMOVIC, CHRISTINE AIKENS, YURI ALEXEEV, POOJA ARORA,
     ANDREY ASADCHEV, ROB BELL, PRADIPTA BANDYOPADHYAY, JONATHAN BENTZ,
     BRETT BODE, KURT BRORSEN, CALEB CARLIN, GALINA CHABAN, WEI CHEN,
     CHEOL HO CHOI, PAUL DAY, ALBERT DEFUSCO, NUWAN DESILVA, TIM DUDLEY,
     DMITRI FEDOROV, GRAHAM FLETCHER, MARK FREITAG, KURT GLAESEMANN,
     DAN KEMP, GRANT MERRILL, NORIYUKI MINEZAWA, JONATHAN MULLIN,
     TAKESHI NAGATA, SEAN NEDD, HEATHER NETZLOFF, BOSILJKA NJEGIC, RYAN OLSON,
     MIKE PAK, SPENCER PRUITT, LUKE ROSKOP, JIM SHOEMAKER, LYUDMILA SLIPCHENKO,
     TONY SMITH, SAROM SOK, JIE SONG, TETSUYA TAKETSUGU, SIMON WEBB,
     PENG XU, SOOHAENG YOO, FEDERICO ZAHARIEV

  ADDITIONAL CODE HAS BEEN PROVIDED BY COLLABORATORS IN OTHER GROUPS:
     IOWA STATE UNIVERSITY:
          JOE IVANIC, AARON WEST, LAIMUTIS BYTAUTAS, KLAUS RUEDENBERG
     UNIVERSITY OF TOKYO: KIMIHIKO HIRAO, TAKAHITO NAKAJIMA,
          TAKAO TSUNEDA, MUNEAKI KAMIYA, SUSUMU YANAGISAWA,
          KIYOSHI YAGI, MAHITO CHIBA, SEIKEN TOKURA, NAOAKI KAWAKAMI
     UNIVERSITY OF AARHUS: FRANK JENSEN
     UNIVERSITY OF IOWA: VISVALDAS KAIRYS, HUI LI
     NATIONAL INST. OF STANDARDS AND TECHNOLOGY: WALT STEVENS, DAVID GARMER
     UNIVERSITY OF PISA: BENEDETTA MENNUCCI, JACOPO TOMASI
     UNIVERSITY OF MEMPHIS: HENRY KURTZ, PRAKASHAN KORAMBATH
     UNIVERSITY OF ALBERTA: TOBY ZENG, MARIUSZ KLOBUKOWSKI
     UNIVERSITY OF NEW ENGLAND: MARK SPACKMAN
     MIE UNIVERSITY: HIROAKI UMEDA
     NAT. INST. OF ADVANCED INDUSTRIAL SCIENCE AND TECHNOLOGY: KAZUO KITAURA
     MICHIGAN STATE UNIVERSITY:
          KAROL KOWALSKI, MARTA WLOCH, JEFFREY GOUR, JESSE LUTZ,
          WEI LI, PIOTR PIECUCH
     UNIVERSITY OF SILESIA: MONIKA MUSIAL, STANISLAW KUCHARSKI
     FACULTES UNIVERSITAIRES NOTRE-DAME DE LA PAIX:
          OLIVIER QUINET, BENOIT CHAMPAGNE
     UNIVERSITY OF CALIFORNIA - SANTA BARBARA: BERNARD KIRTMAN
     INSTITUTE FOR MOLECULAR SCIENCE:
          KAZUYA ISHIMURA, MICHIO KATOUDA, AND SHIGERU NAGASE
     UNIVERSITY OF NOTRE DAME: ANNA POMOGAEVA, DAN CHIPMAN
     KYUSHU UNIVERSITY:
          HARUYUKI NAKANO,
          FENG LONG GU, JACEK KORCHOWIEC, MARCIN MAKOWSKI, AND YURIKO AOKI,
          HIROTOSHI MORI AND EISAKU MIYOSHI
     PENNSYLVANIA STATE UNIVERSITY:
          TZVETELIN IORDANOV, CHET SWALINA, JONATHAN SKONE,
          SHARON HAMMES-SCHIFFER
     WASEDA UNIVERSITY:
          MASATO KOBAYASHI, TOMOKO AKAMA, TSUGUKI TOUMA,
          TAKESHI YOSHIKAWA, YASUHIRO IKABATA, HIROMI NAKAI
     NANJING UNIVERSITY: SHUHUA LI
     UNIVERSITY OF NEBRASKA:
          PEIFENG SU, DEJUN SI, NANDUN THELLAMUREGE, YALI WANG, HUI LI
     UNIVERSITY OF ZURICH: ROBERTO PEVERATI, KIM BALDRIDGE
     N. COPERNICUS UNIVERSITY AND JACKSON STATE UNIVERSITY:
          MARIA BARYSZ
     UNIVERSITY OF COPENHAGEN: CASPER STEINMANN
     TOKYO INSTITUTE OF TECHNOLOGY: HIROYA NAKATA
     NAGOYA UNIVERSITY: YOSHIO NISHIMOTO, STEPHAN IRLE

 EXECUTION OF GAMESS BEGUN Tue Mar  8 21:32:54 2016

            ECHO OF THE FIRST FEW INPUT CARDS -
 INPUT CARD> $CONTRL SCFTYP=ROHF CCTYP=CCSD RUNTYP=OPTIMIZE ISPHER=1 NUMGRD=.T. $END        
 INPUT CARD> $SYSTEM MWORDS=32 MEMDDI=64 $END                                               
 INPUT CARD> $BASIS GBASIS=ACCT $END                                                        
 INPUT CARD> $DATA                                                                          
 INPUT CARD>H2O                                                                             
 INPUT CARD>Cnv 2                                                                           
 INPUT CARD>                                                                                
 INPUT CARD> O 8.0 0 0 0.5                                                                  
 INPUT CARD> H 1.0 0 1.0 0                                                                  
 INPUT CARD> $END                                                                           
   32000000 WORDS OF MEMORY AVAILABLE

     BASIS OPTIONS
     -------------
     GBASIS=ACCT         IGAUSS=       0      POLAR=NONE    
     NDFUNC=       0     NFFUNC=       0     DIFFSP=       F
     NPFUNC=       0      DIFFS=       F     BASNAM=        


     RUN TITLE
     ---------
 H2O                                                                             

 THE POINT GROUP OF THE MOLECULE IS CNV     
 THE ORDER OF THE PRINCIPAL AXIS IS     2

 ATOM      ATOMIC                      COORDINATES (BOHR)
           CHARGE         X                   Y                   Z
 O           8.0     0.0000000000        0.0000000000        0.9448629939
 H           1.0    -0.0000000000       -1.8897259877        0.0000000000
 H           1.0     0.0000000000        1.8897259877        0.0000000000

          INTERNUCLEAR DISTANCES (ANGS.)
          ------------------------------

                1 O          2 H          3 H     

   1 O       0.0000000    1.1180340 *  1.1180340 *
   2 H       1.1180340 *  0.0000000    2.0000000 *
   3 H       1.1180340 *  2.0000000 *  0.0000000  

  * ... LESS THAN  3.000


     ATOMIC BASIS SET
     ----------------
 THE CONTRACTED PRIMITIVE FUNCTIONS HAVE BEEN UNNORMALIZED
 THE CONTRACTED BASIS FUNCTIONS ARE NOW NORMALIZED TO UNITY

  SHELL TYPE  PRIMITIVE        EXPONENT          CONTRACTION COEFFICIENT(S)

 O         

      1   S       1         15330.0000000    0.000520198307
      1   S       2          2299.0000000    0.004023344781
      1   S       3           522.4000000    0.020729083329
      1   S       4           147.3000000    0.081082327080
      1   S       5            47.5500000    0.236226352118
      1   S       6            16.7600000    0.443518209420
      1   S       7             6.2070000    0.358670588689
      1   S       8             0.6882000   -0.008349797237

      2   S       9         15330.0000000   -0.000197236012
      2   S      10          2299.0000000   -0.001535010700
      2   S      11           522.4000000   -0.007951183914
      2   S      12           147.3000000   -0.032113452892
      2   S      13            47.5500000   -0.100269643049
      2   S      14            16.7600000   -0.234047111838
      2   S      15             6.2070000   -0.301410927756
      2   S      16             0.6882000    1.034919649508

      3   S      17             1.7520000    1.000000000000

      4   S      18             0.2384000    1.000000000000

      5   P      19            34.4600000    0.041163489568
      5   P      20             7.7490000    0.257762835858
      5   P      21             2.2800000    0.802419274427

      6   P      22             0.7156000    1.000000000000

      7   P      23             0.2140000    1.000000000000

      8   D      24             2.3140000    1.000000000000

      9   D      25             0.6450000    1.000000000000

     10   F      26             1.4280000    1.000000000000

     11   S      27             0.0737600    1.000000000000

     12   P      28             0.0597400    1.000000000000

     13   D      29             0.2140000    1.000000000000

     14   F      30             0.5000000    1.000000000000

 H         

     24   S      31            33.8700000    0.025494863235
     24   S      32             5.0950000    0.190362765893
     24   S      33             1.1590000    0.852162022245

     25   S      34             0.3258000    1.000000000000

     26   S      35             0.1027000    1.000000000000

     27   P      36             1.4070000    1.000000000000

     28   P      37             0.3880000    1.000000000000

     29   D      38             1.0570000    1.000000000000

     30   S      39             0.0252600    1.000000000000

     31   P      40             0.1020000    1.000000000000

     32   D      41             0.2470000    1.000000000000

 TOTAL NUMBER OF BASIS SET SHELLS             =   32
 NUMBER OF CARTESIAN GAUSSIAN BASIS FUNCTIONS =  105
 NOTE: THIS RUN WILL RESTRICT THE MO VARIATION SPACE TO SPHERICAL HARMONICS.
 THE NUMBER OF ORBITALS KEPT IN THE VARIATIONAL SPACE WILL BE PRINTED LATER.
 NUMBER OF ELECTRONS                          =   10
 CHARGE OF MOLECULE                           =    0
 SPIN MULTIPLICITY                            =    1
 NUMBER OF OCCUPIED ORBITALS (ALPHA)          =    5
 NUMBER OF OCCUPIED ORBITALS (BETA )          =    5
 TOTAL NUMBER OF ATOMS                        =    3
 THE NUCLEAR REPULSION ENERGY IS        7.8375569539

     $CONTRL OPTIONS
     ---------------
 SCFTYP=ROHF         RUNTYP=OPTIMIZE     EXETYP=RUN     
 MPLEVL=       0     CITYP =NONE         CCTYP =CCSD         VBTYP =NONE    
 DFTTYP=NONE         TDDFT =NONE    
 MULT  =       1     ICHARG=       0     NZVAR =       0     COORD =UNIQUE  
 PP    =NONE         RELWFN=NONE         LOCAL =NONE         NUMGRD=       T
 ISPHER=       1     NOSYM =       0     MAXIT =      30     UNITS =ANGS    
 PLTORB=       F     MOLPLT=       F     AIMPAC=       F     FRIEND=        
 NPRINT=       7     IREST =       0     GEOM  =INPUT   
 NORMF =       0     NORMP =       0     ITOL  =      20     ICUT  =       9
 INTTYP=BEST         GRDTYP=BEST         QMTTOL= 1.0E-06

     $SYSTEM OPTIONS
     ---------------
  REPLICATED MEMORY=    32000000 WORDS (ON EVERY NODE).
 DISTRIBUTED MEMDDI=          64 MILLION WORDS IN AGGREGATE,
 MEMDDI DISTRIBUTED OVER   1 PROCESSORS IS    64000000 WORDS/PROCESSOR.
 TOTAL MEMORY REQUESTED ON EACH PROCESSOR=    96000000 WORDS.
 TIMLIM=      525600.00 MINUTES, OR     365.0 DAYS.
 PARALL= F  BALTYP=  DLB     KDIAG=    0  COREFL= F
 MXSEQ2=     300 MXSEQ3=     150  mem10=         0

          ----------------
          PROPERTIES INPUT
          ----------------

     MOMENTS            FIELD           POTENTIAL          DENSITY
 IEMOM =       1   IEFLD =       0   IEPOT =       0   IEDEN =       0
 WHERE =COMASS     WHERE =NUCLEI     WHERE =NUCLEI     WHERE =NUCLEI  
 OUTPUT=BOTH       OUTPUT=BOTH       OUTPUT=BOTH       OUTPUT=BOTH    
 IEMINT=       0   IEFINT=       0                     IEDINT=       0
                                                       MORB  =       0
          EXTRAPOLATION IN EFFECT
          SOSCF IN EFFECT
 ORBITAL PRINTING OPTION: NPREO=     1   105     2     1

     -------------------------------
     INTEGRAL TRANSFORMATION OPTIONS
     -------------------------------
     NWORD  =            0
     CUTOFF = 1.0E-09     MPTRAN =       0
     DIRTRF =       F     AOINTS =DUP     

          ----------------------
          INTEGRAL INPUT OPTIONS
          ----------------------
 NOPK  =       1 NORDER=       0 SCHWRZ=       F

     ------------------------------------------
     THE POINT GROUP IS CNV, NAXIS= 2, ORDER= 4
     ------------------------------------------

 -- VARIATIONAL SPACE WILL BE RESTRICTED TO PURE SPHERICAL HARMONICS ONLY --
 AFTER EXCLUDING CONTAMINANT COMBINATIONS FROM THE CARTESIAN GAUSSIAN BASIS
 SET, THE NUMBER OF SPHERICAL HARMONICS KEPT IN THE VARIATION SPACE IS   92

     DIMENSIONS OF THE SYMMETRY SUBSPACES ARE
 A1  =   35     A2  =   12     B1  =   18     B2  =   27

 ..... DONE SETTING UP THE RUN .....
 STEP CPU TIME =     0.00 TOTAL CPU TIME =        0.0 (    0.0 MIN)
 TOTAL WALL CLOCK TIME=        0.1 SECONDS, CPU UTILIZATION IS   0.00%


          -----------------------------
          STATIONARY POINT LOCATION RUN
          -----------------------------

 OBTAINING INITIAL HESSIAN, HESS=GUESS   
 CARTESIAN COORDINATE OPTIMIZATION USING BADGER'S RULE FORCE CONSTANT GUESS

          PARAMETERS CONTROLLING GEOMETRY SEARCH ARE
          METHOD =QA                  UPHESS =BFGS    
          NNEG   =         0          NFRZ   =         0
          NSTEP  =        50          IFOLOW =         1
          HESS   =GUESS               RESTAR =         F
          IHREP  =         0          HSSEND =         F
          NPRT   =         0          NPUN   =         0
          OPTTOL = 1.000E-04          RMIN   = 1.500E-03
          RMAX   = 1.000E-01          RLIM   = 7.000E-02
          DXMAX  = 3.000E-01          PURIFY =         F
          MOVIE  =         F          TRUPD  =         T
          TRMAX  = 5.000E-01          TRMIN  = 5.000E-02
          ITBMAT =         5          STPT   =         F
          STSTEP = 1.000E-02          PROJCT=          T

 BEGINNING GEOMETRY SEARCH POINT NSERCH=   0 ...

 COORDINATES OF SYMMETRY UNIQUE ATOMS (ANGS)
   ATOM   CHARGE       X              Y              Z
 ------------------------------------------------------------
 O           8.0   0.0000000000   0.0000000000   0.5000000000
 H           1.0   0.0000000000   1.0000000000   0.0000000000
 COORDINATES OF ALL ATOMS ARE (ANGS)
   ATOM   CHARGE       X              Y              Z
 ------------------------------------------------------------
 O           8.0   0.0000000000   0.0000000000   0.5000000000
 H           1.0  -0.0000000000  -1.0000000000   0.0000000000
 H           1.0   0.0000000000   1.0000000000   0.0000000000

          ********************
          1 ELECTRON INTEGRALS
          ********************
 ...... END OF ONE-ELECTRON INTEGRALS ......
 STEP CPU TIME =     0.01 TOTAL CPU TIME =        0.0 (    0.0 MIN)
 TOTAL WALL CLOCK TIME=        0.1 SECONDS, CPU UTILIZATION IS  20.00%

          -------------
          GUESS OPTIONS
          -------------
          GUESS =HUCKEL            NORB  =       0          NORDER=       0
          MIX   =       F          PRTMO =       F          PUNMO =       F
          TOLZ  = 1.0E-08          TOLE  = 1.0E-05
          SYMDEN=       F          PURIFY=       F

 INITIAL GUESS ORBITALS GENERATED BY HUCKEL   ROUTINE.
 HUCKEL GUESS REQUIRES     81459 WORDS.

 STATISTICS FOR GENERATION OF SYMMETRY ORBITAL -Q- MATRIX
 NUMBER OF CARTESIAN ATOMIC ORBITALS=        105
 NUMBER OF SPHERICAL CONTAMINANTS DROPPED=    13
 NUMBER OF LINEARLY DEPENDENT MOS DROPPED=     0
 TOTAL NUMBER OF MOS IN VARIATION SPACE=      92

 SYMMETRIES FOR INITIAL GUESS ORBITALS FOLLOW.  ALPHA SET(S).
     5 ORBITALS ARE OCCUPIED (    1 CORE ORBITALS).
     2=A1       3=B2       4=A1       5=B1       6=B2       7=A1       8=A1  
     9=A1      10=A1      11=A1      12=A1      13=A1      14=A1      15=A1  

 SYMMETRIES FOR INITIAL GUESS ORBITALS FOLLOW.   BETA SET(S).
     5 ORBITALS ARE OCCUPIED (    1 CORE ORBITALS).
     2=A1       3=B2       4=A1       5=B1       6=B2       7=A1       8=A1  
     9=A1      10=A1      11=A1      12=A1      13=A1      14=A1      15=A1  
 ...... END OF INITIAL ORBITAL SELECTION ......
 STEP CPU TIME =     0.00 TOTAL CPU TIME =        0.0 (    0.0 MIN)
 TOTAL WALL CLOCK TIME=        0.1 SECONDS, CPU UTILIZATION IS  16.67%

                    ----------------------
                    AO INTEGRAL TECHNOLOGY
                    ----------------------
     S,P,L SHELL ROTATED AXIS INTEGRALS, REPROGRAMMED BY
        KAZUYA ISHIMURA (IMS) AND JOSE SIERRA (SYNSTAR).
     S,P,D,L SHELL ROTATED AXIS INTEGRALS PROGRAMMED BY
        KAZUYA ISHIMURA (INSTITUTE FOR MOLECULAR SCIENCE).
     S,P,D,F,G SHELL TO TOTAL QUARTET ANGULAR MOMENTUM SUM 5,
        ERIC PROGRAM BY GRAHAM FLETCHER (ELORET AND NASA ADVANCED
        SUPERCOMPUTING DIVISION, AMES RESEARCH CENTER).
     S,P,D,F,G,L SHELL GENERAL RYS QUADRATURE PROGRAMMED BY
        MICHEL DUPUIS (PACIFIC NORTHWEST NATIONAL LABORATORY).

          --------------------
          2 ELECTRON INTEGRALS
          --------------------

 THE -PK- OPTION IS OFF, THE INTEGRALS ARE NOT IN SUPERMATRIX FORM.
 STORING   15000 INTEGRALS/RECORD ON DISK, USING 12 BYTES/INTEGRAL.
 TWO ELECTRON INTEGRAL EVALUATION REQUIRES   99628 WORDS OF MEMORY.
 II,JST,KST,LST =  1  1  1  1 NREC =         1 INTLOC =    1
 II,JST,KST,LST =  2  1  1  1 NREC =         1 INTLOC =    2
 II,JST,KST,LST =  3  1  1  1 NREC =         1 INTLOC =    7
 II,JST,KST,LST =  4  1  1  1 NREC =         1 INTLOC =   22
 II,JST,KST,LST =  5  1  1  1 NREC =         1 INTLOC =   56
 II,JST,KST,LST =  6  1  1  1 NREC =         1 INTLOC =  125
 II,JST,KST,LST =  7  1  1  1 NREC =         1 INTLOC =  329
 II,JST,KST,LST =  8  1  1  1 NREC =         1 INTLOC =  776
 II,JST,KST,LST =  9  1  1  1 NREC =         1 INTLOC = 2864
 II,JST,KST,LST = 10  1  1  1 NREC =         1 INTLOC = 7967
 II,JST,KST,LST = 11  1  1  1 NREC =         2 INTLOC =12194
 II,JST,KST,LST = 12  1  1  1 NREC =         3 INTLOC =  731
 II,JST,KST,LST = 13  1  1  1 NREC =         3 INTLOC =11855
 II,JST,KST,LST = 14  1  1  1 NREC =         5 INTLOC =12962
 II,JST,KST,LST = 15  1  1  1 NREC =        11 INTLOC = 7589
 II,JST,KST,LST = 16  1  1  1 NREC =        11 INTLOC = 7589
 II,JST,KST,LST = 17  1  1  1 NREC =        11 INTLOC = 7589
 II,JST,KST,LST = 18  1  1  1 NREC =        11 INTLOC = 7589
 II,JST,KST,LST = 19  1  1  1 NREC =        11 INTLOC = 7589
 II,JST,KST,LST = 20  1  1  1 NREC =        11 INTLOC = 7589
 II,JST,KST,LST = 21  1  1  1 NREC =        11 INTLOC = 7589
 II,JST,KST,LST = 22  1  1  1 NREC =        11 INTLOC = 7589
 II,JST,KST,LST = 23  1  1  1 NREC =        11 INTLOC = 7589
 II,JST,KST,LST = 24  1  1  1 NREC =        11 INTLOC = 7589
 II,JST,KST,LST = 25  1  1  1 NREC =        14 INTLOC =10216
 II,JST,KST,LST = 26  1  1  1 NREC =        18 INTLOC = 3518
 II,JST,KST,LST = 27  1  1  1 NREC =        22 INTLOC = 2981
 II,JST,KST,LST = 28  1  1  1 NREC =        36 INTLOC = 2067
 II,JST,KST,LST = 29  1  1  1 NREC =        54 INTLOC = 2845
 II,JST,KST,LST = 30  1  1  1 NREC =       105 INTLOC =13511
 II,JST,KST,LST = 31  1  1  1 NREC =       117 INTLOC = 2170
 II,JST,KST,LST = 32  1  1  1 NREC =       154 INTLOC = 1510
 TOTAL NUMBER OF NONZERO TWO-ELECTRON INTEGRALS =             3754802
        251 INTEGRAL RECORDS WERE STORED ON DISK FILE  8.
  ...... END OF TWO-ELECTRON INTEGRALS .....
 STEP CPU TIME =     0.29 TOTAL CPU TIME =        0.3 (    0.0 MIN)
 TOTAL WALL CLOCK TIME=        0.4 SECONDS, CPU UTILIZATION IS  85.71%

          ---------------------------
                 ROHF SCF CALCULATION
          ---------------------------

     NUCLEAR ENERGY =         7.8375569539
     MAXIT = 30     NPUNCH=  2     MULT=  1
     EXTRAP=T  DAMP=F  SHIFT=F  RSTRCT=F  DIIS=F  SOSCF=T
     DENSITY MATRIX CONV=  1.00E-06
     ROHF CANONICALIZATION PARAMETERS
             C-C     O-O     V-V
     ALPHA -0.5000  0.5000  1.5000
     BETA   1.5000  0.5000 -0.5000
     SOSCF WILL OPTIMIZE     435 ORBITAL ROTATION ANGLES. SOGTOL= 2.500E-01
     MEMORY REQUIRED FOR UHF/ROHF ITERS=    133410 WORDS.

 ITER EX      TOTAL ENERGY        E CHANGE  DENSITY CHANGE    ORB. GRAD 
   1  0      -75.7419771148   -75.7419771148   0.328064385   0.000000000
          ---------------START SECOND ORDER SCF---------------
   2  1      -75.9801178299    -0.2381407151   0.047325944   0.037991493
   3  2      -75.9969382371    -0.0168204072   0.025614354   0.011052784
   4  3      -75.9992649153    -0.0023266782   0.003005836   0.002903485
   5  4      -75.9993483253    -0.0000834100   0.002011292   0.001127123
   6  5      -75.9993660697    -0.0000177443   0.000461012   0.000585970
   7  6      -75.9993680927    -0.0000020230   0.000100317   0.000122978
   8  7      -75.9993682215    -0.0000001289   0.000057520   0.000027662
   9  8      -75.9993682418    -0.0000000202   0.000018466   0.000011030
  10  9      -75.9993682434    -0.0000000016   0.000002652   0.000002448
  11 10      -75.9993682434    -0.0000000000   0.000000598   0.000000431
  12 11      -75.9993682434    -0.0000000000   0.000000309   0.000000088

 ROHF HAS CONVERGED, NOW COMPUTING EXACT ALPHA,BETA FOCK MATRICES
 FOR USE DURING THE COUPLED CLUSTER CALCULATION THAT FOLLOWS.

          -----------------
          DENSITY CONVERGED
          -----------------
     TIME TO FORM FOCK OPERATORS=       0.9 SECONDS (       0.1 SEC/ITER)
     TIME TO SOLVE SCF EQUATIONS=       0.0 SECONDS (       0.0 SEC/ITER)

 FINAL ROHF ENERGY IS      -75.9993682434 AFTER  12 ITERATIONS

          --------------------
          SPIN SZ   =    0.000
          S-SQUARED =   -0.000
          --------------------

          ------------
          EIGENVECTORS
          ------------

                      1          2          3          4          5
                  -20.5770    -1.2733    -0.6639    -0.5163    -0.4901
                     A1         A1         B2         A1         B1  
    1  O  1  S    0.975599  -0.006884  -0.000000   0.002624   0.000000
    2  O  1  S   -0.001413   0.521462  -0.000000   0.131243   0.000000
    3  O  1  S    0.043463   0.137528  -0.000000   0.040545   0.000000
    4  O  1  S   -0.002312   0.332890  -0.000000   0.224952   0.000000
    5  O  1  X   -0.000000  -0.000000  -0.000000  -0.000000   0.355700
    6  O  1  Y   -0.000000  -0.000000   0.263677  -0.000000   0.000000
    7  O  1  Z   -0.001744  -0.018672  -0.000000   0.317665   0.000000
    8  O  1  X   -0.000000  -0.000000  -0.000000  -0.000000   0.451322
    9  O  1  Y   -0.000000  -0.000000   0.338064  -0.000000   0.000000
   10  O  1  Z    0.001861  -0.032819  -0.000000   0.400186   0.000000
   11  O  1  X   -0.000000  -0.000000  -0.000000  -0.000000   0.348460
   12  O  1  Y   -0.000000  -0.000000   0.193381  -0.000000   0.000000
   13  O  1  Z    0.000928  -0.013466  -0.000000   0.282394   0.000000
   14  O  1 XX   -0.000012  -0.002005  -0.000000   0.004937   0.000000
   15  O  1 YY    0.000050   0.002650  -0.000000  -0.001858   0.000000
   16  O  1 ZZ   -0.000038  -0.000645  -0.000000  -0.003079   0.000000
   17  O  1 XY   -0.000000  -0.000000  -0.000000  -0.000000   0.000000
   18  O  1 XZ   -0.000000  -0.000000  -0.000000  -0.000000  -0.004079
   19  O  1 YZ   -0.000000  -0.000000  -0.009308  -0.000000   0.000000
   20  O  1 XX    0.000911  -0.008703  -0.000000   0.008881   0.000000
   21  O  1 YY   -0.001228   0.011932  -0.000000   0.001992   0.000000
   22  O  1 ZZ    0.000317  -0.003229  -0.000000  -0.010874   0.000000
   23  O  1 XY   -0.000000  -0.000000  -0.000000  -0.000000   0.000000
   24  O  1 XZ   -0.000000  -0.000000  -0.000000  -0.000000  -0.011408
   25  O  1 YZ   -0.000000  -0.000000  -0.025141  -0.000000   0.000000
   26  O  1 XXX  -0.000000  -0.000000  -0.000000  -0.000000  -0.003056
   27  O  1 YYY  -0.000000  -0.000000   0.003833  -0.000000   0.000000
   28  O  1 ZZZ  -0.000086   0.001307  -0.000000  -0.001092   0.000000
   29  O  1 XXY  -0.000000  -0.000000  -0.004090  -0.000000   0.000000
   30  O  1 XXZ  -0.000060   0.000999  -0.000000  -0.002206   0.000000
   31  O  1 YYX  -0.000000  -0.000000  -0.000000  -0.000000   0.003768
   32  O  1 YYZ   0.000175  -0.002752  -0.000000   0.003672   0.000000
   33  O  1 ZZX  -0.000000  -0.000000  -0.000000  -0.000000   0.000332
   34  O  1 ZZY  -0.000000  -0.000000  -0.001052  -0.000000   0.000000
   35  O  1 XYZ  -0.000000  -0.000000  -0.000000  -0.000000   0.000000
   36  O  1  S   -0.000568   0.028640  -0.000000   0.080722   0.000000
   37  O  1  X   -0.000000  -0.000000  -0.000000  -0.000000   0.041547
   38  O  1  Y   -0.000000  -0.000000   0.011521  -0.000000   0.000000
   39  O  1  Z   -0.000042  -0.001628  -0.000000   0.027713   0.000000
   40  O  1 XX    0.000075  -0.000930  -0.000000   0.002289   0.000000
   41  O  1 YY   -0.000016   0.002143  -0.000000   0.006119   0.000000
   42  O  1 ZZ   -0.000060  -0.001213  -0.000000  -0.008408   0.000000
   43  O  1 XY   -0.000000  -0.000000  -0.000000  -0.000000   0.000000
   44  O  1 XZ   -0.000000  -0.000000  -0.000000  -0.000000  -0.008271
   45  O  1 YZ   -0.000000  -0.000000  -0.010536  -0.000000   0.000000
   46  O  1 XXX  -0.000000  -0.000000  -0.000000  -0.000000  -0.003584
   47  O  1 YYY  -0.000000  -0.000000   0.001696  -0.000000   0.000000
   48  O  1 ZZZ  -0.000146   0.001835  -0.000000  -0.000176   0.000000
   49  O  1 XXY  -0.000000  -0.000000  -0.003844  -0.000000   0.000000
   50  O  1 XXZ  -0.000104   0.001152  -0.000000  -0.001781   0.000000
   51  O  1 YYX  -0.000000  -0.000000  -0.000000  -0.000000   0.004311
   52  O  1 YYZ   0.000299  -0.003614  -0.000000   0.002017   0.000000
   53  O  1 ZZX  -0.000000  -0.000000  -0.000000  -0.000000   0.000497
   54  O  1 ZZY  -0.000000  -0.000000   0.001569  -0.000000   0.000000
   55  O  1 XYZ  -0.000000  -0.000000  -0.000000  -0.000000   0.000000
   56  H  2  S    0.000143   0.062948  -0.128455  -0.071950   0.000000
   57  H  2  S    0.002648   0.060828  -0.194717  -0.142056   0.000000
   58  H  2  S    0.000412  -0.004669  -0.061686  -0.087891   0.000000
   59  H  2  X   -0.000000  -0.000000  -0.000000  -0.000000   0.007580
   60  H  2  Y    0.000326   0.008227  -0.007887  -0.006055   0.000000
   61  H  2  Z    0.000187   0.003753  -0.006254   0.003546   0.000000
   62  H  2  X   -0.000000  -0.000000  -0.000000  -0.000000   0.021630
   63  H  2  Y    0.001725   0.010338  -0.019087  -0.027109   0.000000
   64  H  2  Z    0.000732   0.003174  -0.016973   0.005626   0.000000
   65  H  2 XX   -0.000170  -0.000855   0.001364   0.001008   0.000000
   66  H  2 YY    0.000250   0.001344  -0.000835  -0.003554   0.000000
   67  H  2 ZZ   -0.000080  -0.000488  -0.000530   0.002546   0.000000
   68  H  2 XY   -0.000000  -0.000000  -0.000000  -0.000000   0.003645
   69  H  2 XZ   -0.000000  -0.000000  -0.000000  -0.000000   0.001783
   70  H  2 YZ    0.000238   0.000883  -0.002866   0.000585   0.000000
   71  H  2  S    0.000060  -0.000899   0.003415  -0.002819   0.000000
   72  H  2  X   -0.000000  -0.000000  -0.000000  -0.000000   0.014556
   73  H  2  Y    0.000288  -0.001977  -0.000298  -0.011426   0.000000
   74  H  2  Z    0.000075  -0.001873  -0.000785   0.007120   0.000000
   75  H  2 XX   -0.000276  -0.000871   0.002052   0.003458   0.000000
   76  H  2 YY    0.000441   0.001605  -0.001111  -0.007157   0.000000
   77  H  2 ZZ   -0.000165  -0.000734  -0.000941   0.003699   0.000000
   78  H  2 XY   -0.000000  -0.000000  -0.000000  -0.000000   0.003794
   79  H  2 XZ   -0.000000  -0.000000  -0.000000  -0.000000   0.002198
   80  H  2 YZ    0.000365   0.000746  -0.004832  -0.000653   0.000000
   81  H  3  S    0.000143   0.062948   0.128455  -0.071950   0.000000
   82  H  3  S    0.002648   0.060828   0.194717  -0.142056   0.000000
   83  H  3  S    0.000412  -0.004669   0.061686  -0.087891   0.000000
   84  H  3  X   -0.000000  -0.000000  -0.000000  -0.000000   0.007580
   85  H  3  Y   -0.000326  -0.008227  -0.007887   0.006055   0.000000
   86  H  3  Z    0.000187   0.003753   0.006254   0.003546   0.000000
   87  H  3  X   -0.000000  -0.000000  -0.000000  -0.000000   0.021630
   88  H  3  Y   -0.001725  -0.010338  -0.019087   0.027109   0.000000
   89  H  3  Z    0.000732   0.003174   0.016973   0.005626   0.000000
   90  H  3 XX   -0.000170  -0.000855  -0.001364   0.001008   0.000000
   91  H  3 YY    0.000250   0.001344   0.000835  -0.003554   0.000000
   92  H  3 ZZ   -0.000080  -0.000488   0.000530   0.002546   0.000000
   93  H  3 XY   -0.000000  -0.000000  -0.000000  -0.000000  -0.003645
   94  H  3 XZ   -0.000000  -0.000000  -0.000000  -0.000000   0.001783
   95  H  3 YZ   -0.000238  -0.000883  -0.002866  -0.000585   0.000000
   96  H  3  S    0.000060  -0.000899  -0.003415  -0.002819   0.000000
   97  H  3  X   -0.000000  -0.000000  -0.000000  -0.000000   0.014556
   98  H  3  Y   -0.000288   0.001977  -0.000298   0.011426   0.000000
   99  H  3  Z    0.000075  -0.001873   0.000785   0.007120   0.000000
  100  H  3 XX   -0.000276  -0.000871  -0.002052   0.003458   0.000000
  101  H  3 YY    0.000441   0.001605   0.001111  -0.007157   0.000000
  102  H  3 ZZ   -0.000165  -0.000734   0.000941   0.003699   0.000000
  103  H  3 XY   -0.000000  -0.000000  -0.000000  -0.000000  -0.003794
  104  H  3 XZ   -0.000000  -0.000000  -0.000000  -0.000000   0.002198
  105  H  3 YZ   -0.000365  -0.000746  -0.004832   0.000653   0.000000

                      6          7          8          9         10
                    0.0267     0.0453     0.1316     0.1578     0.1639
                     A1         B2         A1         A1         B1  
    1  O  1  S   -0.007194   0.000000  -0.030785  -0.006425   0.000000
    2  O  1  S    0.065407   0.000000  -0.172229  -0.120370   0.000000
    3  O  1  S    0.015919   0.000000  -0.054302  -0.043535   0.000000
    4  O  1  S    0.569963   0.000000   1.347801   0.135485   0.000000
    5  O  1  X    0.000000   0.000000  -0.000000   0.000000  -0.094591
    6  O  1  Y    0.000000   0.039374  -0.000000   0.000000   0.000000
    7  O  1  Z   -0.046355   0.000000   0.107485  -0.017239   0.000000
    8  O  1  X    0.000000   0.000000  -0.000000   0.000000  -0.082137
    9  O  1  Y    0.000000   0.066011  -0.000000   0.000000   0.000000
   10  O  1  Z   -0.068518   0.000000   0.104839  -0.016336   0.000000
   11  O  1  X    0.000000   0.000000  -0.000000   0.000000  -0.100875
   12  O  1  Y    0.000000   0.432331  -0.000000   0.000000   0.000000
   13  O  1  Z   -0.249368   0.000000  -0.414971  -0.146102   0.000000
   14  O  1 XX    0.001510   0.000000   0.000864   0.002497   0.000000
   15  O  1 YY   -0.002600   0.000000  -0.000952  -0.000444   0.000000
   16  O  1 ZZ    0.001090   0.000000   0.000088  -0.002053   0.000000
   17  O  1 XY    0.000000   0.000000  -0.000000   0.000000   0.000000
   18  O  1 XZ    0.000000   0.000000  -0.000000   0.000000  -0.002166
   19  O  1 YZ    0.000000   0.000592  -0.000000   0.000000   0.000000
   20  O  1 XX   -0.016602   0.000000  -0.035626  -0.045998   0.000000
   21  O  1 YY    0.019612   0.000000   0.064261   0.042381   0.000000
   22  O  1 ZZ   -0.003010   0.000000  -0.028635   0.003617   0.000000
   23  O  1 XY    0.000000   0.000000  -0.000000   0.000000   0.000000
   24  O  1 XZ    0.000000   0.000000  -0.000000   0.000000   0.025219
   25  O  1 YZ    0.000000  -0.018189  -0.000000   0.000000   0.000000
   26  O  1 XXX   0.000000   0.000000  -0.000000   0.000000   0.003579
   27  O  1 YYY   0.000000  -0.000024  -0.000000   0.000000   0.000000
   28  O  1 ZZZ   0.000303   0.000000   0.002593  -0.000845   0.000000
   29  O  1 XXY   0.000000  -0.000089  -0.000000   0.000000   0.000000
   30  O  1 XXZ   0.000584   0.000000   0.001013   0.001197   0.000000
   31  O  1 YYX   0.000000   0.000000  -0.000000   0.000000  -0.003193
   32  O  1 YYZ  -0.000990   0.000000  -0.004491  -0.000062   0.000000
   33  O  1 ZZX   0.000000   0.000000  -0.000000   0.000000  -0.001609
   34  O  1 ZZY   0.000000   0.000121  -0.000000   0.000000   0.000000
   35  O  1 XYZ   0.000000   0.000000  -0.000000   0.000000   0.000000
   36  O  1  S    2.151028   0.000000   6.510391  -0.735936   0.000000
   37  O  1  X    0.000000   0.000000  -0.000000   0.000000   1.757104
   38  O  1  Y    0.000000   1.157278  -0.000000   0.000000   0.000000
   39  O  1  Z   -0.212748   0.000000  -1.465744   1.713828   0.000000
   40  O  1 XX   -0.048670   0.000000  -0.090037   0.017084   0.000000
   41  O  1 YY    0.078322   0.000000   0.025030   0.121955   0.000000
   42  O  1 ZZ   -0.029652   0.000000   0.065007  -0.139039   0.000000
   43  O  1 XY    0.000000   0.000000  -0.000000   0.000000   0.000000
   44  O  1 XZ    0.000000   0.000000  -0.000000   0.000000  -0.153462
   45  O  1 YZ    0.000000  -0.068972  -0.000000   0.000000   0.000000
   46  O  1 XXX   0.000000   0.000000  -0.000000   0.000000  -0.008884
   47  O  1 YYY   0.000000   0.008827  -0.000000   0.000000   0.000000
   48  O  1 ZZZ   0.008965   0.000000   0.008296   0.021528   0.000000
   49  O  1 XXY   0.000000  -0.010826  -0.000000   0.000000   0.000000
   50  O  1 XXZ   0.005360   0.000000   0.007148   0.006808   0.000000
   51  O  1 YYX   0.000000   0.000000  -0.000000   0.000000   0.004933
   52  O  1 YYZ  -0.017388   0.000000  -0.018278  -0.035690   0.000000
   53  O  1 ZZX   0.000000   0.000000  -0.000000   0.000000   0.006987
   54  O  1 ZZY   0.000000  -0.001017  -0.000000   0.000000   0.000000
   55  O  1 XYZ   0.000000   0.000000  -0.000000   0.000000   0.000000
   56  H  2  S   -0.016970  -0.003570   0.050276   0.058830   0.000000
   57  H  2  S   -0.176751   0.120972  -0.095592  -0.171405   0.000000
   58  H  2  S   -0.871993   1.037655  -2.749758   1.095395   0.000000
   59  H  2  X    0.000000   0.000000  -0.000000   0.000000  -0.001503
   60  H  2  Y    0.003064  -0.004493  -0.002490  -0.011949   0.000000
   61  H  2  Z    0.000791  -0.001575  -0.001794  -0.001988   0.000000
   62  H  2  X    0.000000   0.000000  -0.000000   0.000000   0.000524
   63  H  2  Y   -0.059822   0.066753  -0.233706  -0.054764   0.000000
   64  H  2  Z   -0.036289   0.028833  -0.075865  -0.033452   0.000000
   65  H  2 XX    0.002344  -0.001588   0.008467   0.000385   0.000000
   66  H  2 YY   -0.003362   0.002637  -0.009898  -0.003782   0.000000
   67  H  2 ZZ    0.001017  -0.001048   0.001430   0.003397   0.000000
   68  H  2 XY    0.000000   0.000000  -0.000000   0.000000   0.003548
   69  H  2 XZ    0.000000   0.000000  -0.000000   0.000000   0.001505
   70  H  2 YZ   -0.003803   0.001525  -0.009070  -0.003190   0.000000
   71  H  2  S   -0.811934   2.629956  -0.906634  -0.262501   0.000000
   72  H  2  X    0.000000   0.000000  -0.000000   0.000000  -0.501294
   73  H  2  Y   -0.225713   0.256018  -1.239520  -0.104063   0.000000
   74  H  2  Z   -0.138621   0.222525  -0.355737  -0.364436   0.000000
   75  H  2 XX    0.017380  -0.017344   0.062879   0.013102   0.000000
   76  H  2 YY   -0.022424   0.015701  -0.130999  -0.001483   0.000000
   77  H  2 ZZ    0.005044   0.001643   0.068120  -0.011619   0.000000
   78  H  2 XY    0.000000   0.000000  -0.000000   0.000000  -0.077467
   79  H  2 XZ    0.000000   0.000000  -0.000000   0.000000  -0.013848
   80  H  2 YZ   -0.025784   0.031888  -0.080632  -0.051048   0.000000
   81  H  3  S   -0.016970   0.003570   0.050276   0.058830   0.000000
   82  H  3  S   -0.176751  -0.120972  -0.095592  -0.171405   0.000000
   83  H  3  S   -0.871993  -1.037655  -2.749758   1.095395   0.000000
   84  H  3  X    0.000000   0.000000  -0.000000   0.000000  -0.001503
   85  H  3  Y   -0.003064  -0.004493   0.002490   0.011949   0.000000
   86  H  3  Z    0.000791   0.001575  -0.001794  -0.001988   0.000000
   87  H  3  X    0.000000   0.000000  -0.000000   0.000000   0.000524
   88  H  3  Y    0.059822   0.066753   0.233706   0.054764   0.000000
   89  H  3  Z   -0.036289  -0.028833  -0.075865  -0.033452   0.000000
   90  H  3 XX    0.002344   0.001588   0.008467   0.000385   0.000000
   91  H  3 YY   -0.003362  -0.002637  -0.009898  -0.003782   0.000000
   92  H  3 ZZ    0.001017   0.001048   0.001430   0.003397   0.000000
   93  H  3 XY    0.000000   0.000000  -0.000000   0.000000  -0.003548
   94  H  3 XZ    0.000000   0.000000  -0.000000   0.000000   0.001505
   95  H  3 YZ    0.003803   0.001525   0.009070   0.003190   0.000000
   96  H  3  S   -0.811934  -2.629956  -0.906634  -0.262501   0.000000
   97  H  3  X    0.000000   0.000000  -0.000000   0.000000  -0.501294
   98  H  3  Y    0.225713   0.256018   1.239520   0.104063   0.000000
   99  H  3  Z   -0.138621  -0.222525  -0.355737  -0.364436   0.000000
  100  H  3 XX    0.017380   0.017344   0.062879   0.013102   0.000000
  101  H  3 YY   -0.022424  -0.015701  -0.130999  -0.001483   0.000000
  102  H  3 ZZ    0.005044  -0.001643   0.068120  -0.011619   0.000000
  103  H  3 XY    0.000000   0.000000  -0.000000   0.000000   0.077467
  104  H  3 XZ    0.000000   0.000000  -0.000000   0.000000  -0.013848
  105  H  3 YZ    0.025784   0.031888   0.080632   0.051048   0.000000

                     11         12         13         14         15
                    0.1745     0.2233     0.2373     0.2551     0.3201
                     B2         B2         A1         A2         B1  
    1  O  1  S    0.000000  -0.000000  -0.034168  -0.000000   0.000000
    2  O  1  S    0.000000  -0.000000  -0.103167  -0.000000   0.000000
    3  O  1  S    0.000000  -0.000000  -0.035826  -0.000000   0.000000
    4  O  1  S    0.000000  -0.000000   0.775079  -0.000000   0.000000
    5  O  1  X    0.000000  -0.000000  -0.000000  -0.000000   0.086713
    6  O  1  Y   -0.122501   0.053813  -0.000000  -0.000000   0.000000
    7  O  1  Z    0.000000  -0.000000  -0.010272  -0.000000   0.000000
    8  O  1  X    0.000000  -0.000000  -0.000000  -0.000000   0.016303
    9  O  1  Y   -0.108065   0.071105  -0.000000  -0.000000   0.000000
   10  O  1  Z    0.000000  -0.000000  -0.044046  -0.000000   0.000000
   11  O  1  X    0.000000  -0.000000  -0.000000  -0.000000   1.308543
   12  O  1  Y    1.070714   0.729831  -0.000000  -0.000000   0.000000
   13  O  1  Z    0.000000  -0.000000   0.005162  -0.000000   0.000000
   14  O  1 XX    0.000000  -0.000000   0.003422  -0.000000   0.000000
   15  O  1 YY    0.000000  -0.000000  -0.004845  -0.000000   0.000000
   16  O  1 ZZ    0.000000  -0.000000   0.001423  -0.000000   0.000000
   17  O  1 XY    0.000000  -0.000000  -0.000000  -0.000972   0.000000
   18  O  1 XZ    0.000000  -0.000000  -0.000000  -0.000000   0.001783
   19  O  1 YZ    0.004663   0.003363  -0.000000  -0.000000   0.000000
   20  O  1 XX    0.000000  -0.000000  -0.022872  -0.000000   0.000000
   21  O  1 YY    0.000000  -0.000000   0.013726  -0.000000   0.000000
   22  O  1 ZZ    0.000000  -0.000000   0.009146  -0.000000   0.000000
   23  O  1 XY    0.000000  -0.000000  -0.000000  -0.029854   0.000000
   24  O  1 XZ    0.000000  -0.000000  -0.000000  -0.000000   0.014802
   25  O  1 YZ   -0.054049   0.000929  -0.000000  -0.000000   0.000000
   26  O  1 XXX   0.000000  -0.000000  -0.000000  -0.000000   0.009364
   27  O  1 YYY  -0.002574   0.003456  -0.000000  -0.000000   0.000000
   28  O  1 ZZZ   0.000000  -0.000000  -0.002618  -0.000000   0.000000
   29  O  1 XXY   0.001686   0.003877  -0.000000  -0.000000   0.000000
   30  O  1 XXZ   0.000000  -0.000000   0.001944  -0.000000   0.000000
   31  O  1 YYX   0.000000  -0.000000  -0.000000  -0.000000  -0.009037
   32  O  1 YYZ   0.000000  -0.000000   0.001569  -0.000000   0.000000
   33  O  1 ZZX   0.000000  -0.000000  -0.000000  -0.000000  -0.003526
   34  O  1 ZZY   0.001768  -0.008514  -0.000000  -0.000000   0.000000
   35  O  1 XYZ   0.000000  -0.000000  -0.000000   0.010614   0.000000
   36  O  1  S    0.000000  -0.000000   5.669914  -0.000000   0.000000
   37  O  1  X    0.000000  -0.000000  -0.000000  -0.000000   1.987276
   38  O  1  Y    3.229126   2.232550  -0.000000  -0.000000   0.000000
   39  O  1  Z    0.000000  -0.000000   0.302790  -0.000000   0.000000
   40  O  1 XX    0.000000  -0.000000  -0.274738  -0.000000   0.000000
   41  O  1 YY    0.000000  -0.000000   0.772936  -0.000000   0.000000
   42  O  1 ZZ    0.000000  -0.000000  -0.498198  -0.000000   0.000000
   43  O  1 XY    0.000000  -0.000000  -0.000000   0.679932   0.000000
   44  O  1 XZ    0.000000  -0.000000  -0.000000  -0.000000  -0.357119
   45  O  1 YZ   -0.195074  -0.638056  -0.000000  -0.000000   0.000000
   46  O  1 XXX   0.000000  -0.000000  -0.000000  -0.000000  -0.060834
   47  O  1 YYY   0.024427  -0.014289  -0.000000  -0.000000   0.000000
   48  O  1 ZZZ   0.000000  -0.000000   0.036356  -0.000000   0.000000
   49  O  1 XXY  -0.028627  -0.038466  -0.000000  -0.000000   0.000000
   50  O  1 XXZ   0.000000  -0.000000   0.004027  -0.000000   0.000000
   51  O  1 YYX   0.000000  -0.000000  -0.000000  -0.000000   0.066410
   52  O  1 YYZ   0.000000  -0.000000  -0.052803  -0.000000   0.000000
   53  O  1 ZZX   0.000000  -0.000000  -0.000000  -0.000000   0.015207
   54  O  1 ZZY  -0.004145   0.057636  -0.000000  -0.000000   0.000000
   55  O  1 XYZ   0.000000  -0.000000  -0.000000  -0.062809   0.000000
   56  H  2  S   -0.017597   0.036443  -0.027225  -0.000000   0.000000
   57  H  2  S    0.345128   0.552417  -0.555128  -0.000000   0.000000
   58  H  2  S    3.377107   1.809385  -2.591895  -0.000000   0.000000
   59  H  2  X    0.000000  -0.000000  -0.000000  -0.000986  -0.006212
   60  H  2  Y   -0.000976  -0.007948  -0.002908  -0.000000   0.000000
   61  H  2  Z    0.002829  -0.005838   0.007970  -0.000000   0.000000
   62  H  2  X    0.000000  -0.000000  -0.000000   0.174788  -0.113523
   63  H  2  Y    0.253045   0.188686  -0.111921  -0.000000   0.000000
   64  H  2  Z    0.124020  -0.029954  -0.238484  -0.000000   0.000000
   65  H  2 XX   -0.005376  -0.007899   0.004468  -0.000000   0.000000
   66  H  2 YY    0.007381   0.011524  -0.012114  -0.000000   0.000000
   67  H  2 ZZ   -0.002005  -0.003624   0.007647  -0.000000   0.000000
   68  H  2 XY    0.000000  -0.000000  -0.000000   0.001033   0.000551
   69  H  2 XZ    0.000000  -0.000000  -0.000000  -0.004871  -0.004905
   70  H  2 YZ    0.006866   0.001263  -0.009980  -0.000000   0.000000
   71  H  2  S    2.559663   0.540730  -0.402035  -0.000000   0.000000
   72  H  2  X    0.000000  -0.000000  -0.000000   1.406037  -1.852527
   73  H  2  Y    1.229772  -0.261186   0.009642  -0.000000   0.000000
   74  H  2  Z    0.871368  -0.580742  -1.086109  -0.000000   0.000000
   75  H  2 XX   -0.060745   0.087530   0.016904  -0.000000   0.000000
   76  H  2 YY    0.056539  -0.007042   0.119945  -0.000000   0.000000
   77  H  2 ZZ    0.004206  -0.080488  -0.136849  -0.000000   0.000000
   78  H  2 XY    0.000000  -0.000000  -0.000000   0.216814  -0.278543
   79  H  2 XZ    0.000000  -0.000000  -0.000000   0.161980  -0.057817
   80  H  2 YZ    0.107534  -0.098359  -0.117918  -0.000000   0.000000
   81  H  3  S    0.017597  -0.036443  -0.027225  -0.000000   0.000000
   82  H  3  S   -0.345128  -0.552417  -0.555128  -0.000000   0.000000
   83  H  3  S   -3.377107  -1.809385  -2.591895  -0.000000   0.000000
   84  H  3  X    0.000000  -0.000000  -0.000000   0.000986  -0.006212
   85  H  3  Y   -0.000976  -0.007948   0.002908  -0.000000   0.000000
   86  H  3  Z   -0.002829   0.005838   0.007970  -0.000000   0.000000
   87  H  3  X    0.000000  -0.000000  -0.000000  -0.174788  -0.113523
   88  H  3  Y    0.253045   0.188686   0.111921  -0.000000   0.000000
   89  H  3  Z   -0.124020   0.029954  -0.238484  -0.000000   0.000000
   90  H  3 XX    0.005376   0.007899   0.004468  -0.000000   0.000000
   91  H  3 YY   -0.007381  -0.011524  -0.012114  -0.000000   0.000000
   92  H  3 ZZ    0.002005   0.003624   0.007647  -0.000000   0.000000
   93  H  3 XY    0.000000  -0.000000  -0.000000   0.001033  -0.000551
   94  H  3 XZ    0.000000  -0.000000  -0.000000   0.004871  -0.004905
   95  H  3 YZ    0.006866   0.001263   0.009980  -0.000000   0.000000
   96  H  3  S   -2.559663  -0.540730  -0.402035  -0.000000   0.000000
   97  H  3  X    0.000000  -0.000000  -0.000000  -1.406037  -1.852527
   98  H  3  Y    1.229772  -0.261186  -0.009642  -0.000000   0.000000
   99  H  3  Z   -0.871368   0.580742  -1.086109  -0.000000   0.000000
  100  H  3 XX    0.060745  -0.087530   0.016904  -0.000000   0.000000
  101  H  3 YY   -0.056539   0.007042   0.119945  -0.000000   0.000000
  102  H  3 ZZ   -0.004206   0.080488  -0.136849  -0.000000   0.000000
  103  H  3 XY    0.000000  -0.000000  -0.000000   0.216814   0.278543
  104  H  3 XZ    0.000000  -0.000000  -0.000000  -0.161980  -0.057817
  105  H  3 YZ    0.107534  -0.098359   0.117918  -0.000000   0.000000

                     16         17         18         19         20
                    0.3229     0.3572     0.3946     0.4353     0.6122
                     A1         B2         A1         B2         B2  
    1  O  1  S   -0.016330   0.000000  -0.042068  -0.000000  -0.000000
    2  O  1  S   -0.057292   0.000000   0.093390  -0.000000  -0.000000
    3  O  1  S   -0.039729   0.000000   0.029365  -0.000000  -0.000000
    4  O  1  S    0.966392   0.000000   3.945990  -0.000000  -0.000000
    5  O  1  X   -0.000000   0.000000   0.000000  -0.000000  -0.000000
    6  O  1  Y   -0.000000   0.027990   0.000000   0.191921  -0.064270
    7  O  1  Z   -0.104952   0.000000  -0.097427  -0.000000  -0.000000
    8  O  1  X   -0.000000   0.000000   0.000000  -0.000000  -0.000000
    9  O  1  Y   -0.000000   0.007022   0.000000   0.347320  -0.020408
   10  O  1  Z   -0.093893   0.000000  -0.210019  -0.000000  -0.000000
   11  O  1  X   -0.000000   0.000000   0.000000  -0.000000  -0.000000
   12  O  1  Y   -0.000000  -0.215751   0.000000   2.794324   3.322513
   13  O  1  Z   -1.771589   0.000000  -0.858206  -0.000000  -0.000000
   14  O  1 XX    0.007282   0.000000   0.009597  -0.000000  -0.000000
   15  O  1 YY   -0.008167   0.000000  -0.014786  -0.000000  -0.000000
   16  O  1 ZZ    0.000885   0.000000   0.005189  -0.000000  -0.000000
   17  O  1 XY   -0.000000   0.000000   0.000000  -0.000000  -0.000000
   18  O  1 XZ   -0.000000   0.000000   0.000000  -0.000000  -0.000000
   19  O  1 YZ   -0.000000  -0.002277   0.000000   0.011853  -0.009319
   20  O  1 XX   -0.053690   0.000000  -0.069528  -0.000000  -0.000000
   21  O  1 YY    0.085000   0.000000   0.081539  -0.000000  -0.000000
   22  O  1 ZZ   -0.031310   0.000000  -0.012011  -0.000000  -0.000000
   23  O  1 XY   -0.000000   0.000000   0.000000  -0.000000  -0.000000
   24  O  1 XZ   -0.000000   0.000000   0.000000  -0.000000  -0.000000
   25  O  1 YZ   -0.000000   0.012439   0.000000  -0.114027  -0.167650
   26  O  1 XXX  -0.000000   0.000000   0.000000  -0.000000  -0.000000
   27  O  1 YYY  -0.000000  -0.006567   0.000000  -0.001633   0.006394
   28  O  1 ZZZ   0.003567   0.000000   0.007204  -0.000000  -0.000000
   29  O  1 XXY  -0.000000  -0.000660   0.000000  -0.004558   0.007184
   30  O  1 XXZ  -0.004220   0.000000   0.007185  -0.000000  -0.000000
   31  O  1 YYX  -0.000000   0.000000   0.000000  -0.000000  -0.000000
   32  O  1 YYZ  -0.000566   0.000000  -0.016850  -0.000000  -0.000000
   33  O  1 ZZX  -0.000000   0.000000   0.000000  -0.000000  -0.000000
   34  O  1 ZZY  -0.000000   0.009470   0.000000   0.006749  -0.015763
   35  O  1 XYZ  -0.000000   0.000000   0.000000  -0.000000  -0.000000
   36  O  1  S    6.615816   0.000000   7.957276  -0.000000  -0.000000
   37  O  1  X   -0.000000   0.000000   0.000000  -0.000000  -0.000000
   38  O  1  Y   -0.000000   3.097740   0.000000   2.896422   2.830614
   39  O  1  Z   -2.441032   0.000000  -0.384417  -0.000000  -0.000000
   40  O  1 XX   -0.262436   0.000000   0.287578  -0.000000  -0.000000
   41  O  1 YY   -0.073581   0.000000  -0.449422  -0.000000  -0.000000
   42  O  1 ZZ    0.336017   0.000000   0.161843  -0.000000  -0.000000
   43  O  1 XY   -0.000000   0.000000   0.000000  -0.000000  -0.000000
   44  O  1 XZ   -0.000000   0.000000   0.000000  -0.000000  -0.000000
   45  O  1 YZ   -0.000000   0.353280   0.000000   0.118817  -2.109002
   46  O  1 XXX  -0.000000   0.000000   0.000000  -0.000000  -0.000000
   47  O  1 YYY  -0.000000   0.017535   0.000000   0.075658   0.001609
   48  O  1 ZZZ   0.024765   0.000000  -0.018268  -0.000000  -0.000000
   49  O  1 XXY  -0.000000   0.014453   0.000000  -0.033693  -0.142182
   50  O  1 XXZ   0.053103   0.000000  -0.019460  -0.000000  -0.000000
   51  O  1 YYX  -0.000000   0.000000   0.000000  -0.000000  -0.000000
   52  O  1 YYZ  -0.086329   0.000000   0.043970  -0.000000  -0.000000
   53  O  1 ZZX  -0.000000   0.000000   0.000000  -0.000000  -0.000000
   54  O  1 ZZY  -0.000000  -0.037978   0.000000  -0.067813   0.140022
   55  O  1 XYZ  -0.000000   0.000000   0.000000  -0.000000  -0.000000
   56  H  2  S   -0.025048   0.020484  -0.072345   0.047872  -0.128643
   57  H  2  S   -0.529650  -0.255338  -0.214263   0.611356   1.429409
   58  H  2  S   -3.578664  -0.123703  -4.566881   7.085185   5.811419
   59  H  2  X   -0.000000   0.000000   0.000000  -0.000000  -0.000000
   60  H  2  Y    0.006681  -0.008332   0.014763  -0.018468  -0.021681
   61  H  2  Z   -0.003140   0.012149  -0.006114  -0.011989   0.002099
   62  H  2  X   -0.000000   0.000000   0.000000  -0.000000  -0.000000
   63  H  2  Y   -0.366061  -0.070757  -0.241283   0.315646   0.829819
   64  H  2  Z   -0.019270  -0.046158  -0.045485   0.267276   0.223665
   65  H  2 XX    0.011652  -0.001640   0.011883  -0.006690  -0.025039
   66  H  2 YY   -0.017365   0.006145  -0.007564   0.005694   0.033162
   67  H  2 ZZ    0.005713  -0.004506  -0.004318   0.000996  -0.008123
   68  H  2 XY   -0.000000   0.000000   0.000000  -0.000000  -0.000000
   69  H  2 XZ   -0.000000   0.000000   0.000000  -0.000000  -0.000000
   70  H  2 YZ   -0.018966  -0.005683  -0.011061   0.015355   0.014194
   71  H  2  S   -0.292445   0.558606  -0.641800   1.622573   0.834046
   72  H  2  X   -0.000000   0.000000   0.000000  -0.000000  -0.000000
   73  H  2  Y   -0.826755  -2.362015  -2.365213   2.763099   1.321701
   74  H  2  Z    1.119664   1.211584  -1.239063   1.698460   0.141726
   75  H  2 XX    0.056926   0.070351   0.169404  -0.200269   0.125022
   76  H  2 YY   -0.182891  -0.242821  -0.332692   0.175642   0.114306
   77  H  2 ZZ    0.125965   0.172470   0.163289   0.024627  -0.239327
   78  H  2 XY   -0.000000   0.000000   0.000000  -0.000000  -0.000000
   79  H  2 XZ   -0.000000   0.000000   0.000000  -0.000000  -0.000000
   80  H  2 YZ    0.132904   0.080728  -0.281193   0.293878  -0.173631
   81  H  3  S   -0.025048  -0.020484  -0.072345  -0.047872   0.128643
   82  H  3  S   -0.529650   0.255338  -0.214263  -0.611356  -1.429409
   83  H  3  S   -3.578664   0.123703  -4.566881  -7.085185  -5.811419
   84  H  3  X   -0.000000   0.000000   0.000000  -0.000000  -0.000000
   85  H  3  Y   -0.006681  -0.008332  -0.014763  -0.018468  -0.021681
   86  H  3  Z   -0.003140  -0.012149  -0.006114   0.011989  -0.002099
   87  H  3  X   -0.000000   0.000000   0.000000  -0.000000  -0.000000
   88  H  3  Y    0.366061  -0.070757   0.241283   0.315646   0.829819
   89  H  3  Z   -0.019270   0.046158  -0.045485  -0.267276  -0.223665
   90  H  3 XX    0.011652   0.001640   0.011883   0.006690   0.025039
   91  H  3 YY   -0.017365  -0.006145  -0.007564  -0.005694  -0.033162
   92  H  3 ZZ    0.005713   0.004506  -0.004318  -0.000996   0.008123
   93  H  3 XY   -0.000000   0.000000   0.000000  -0.000000  -0.000000
   94  H  3 XZ   -0.000000   0.000000   0.000000  -0.000000  -0.000000
   95  H  3 YZ    0.018966  -0.005683   0.011061   0.015355   0.014194
   96  H  3  S   -0.292445  -0.558606  -0.641800  -1.622573  -0.834046
   97  H  3  X   -0.000000   0.000000   0.000000  -0.000000  -0.000000
   98  H  3  Y    0.826755  -2.362015   2.365213   2.763099   1.321701
   99  H  3  Z    1.119664  -1.211584  -1.239063  -1.698460  -0.141726
  100  H  3 XX    0.056926  -0.070351   0.169404   0.200269  -0.125022
  101  H  3 YY   -0.182891   0.242821  -0.332692  -0.175642  -0.114306
  102  H  3 ZZ    0.125965  -0.172470   0.163289  -0.024627   0.239327
  103  H  3 XY   -0.000000   0.000000   0.000000  -0.000000  -0.000000
  104  H  3 XZ   -0.000000   0.000000   0.000000  -0.000000  -0.000000
  105  H  3 YZ   -0.132904   0.080728   0.281193   0.293878  -0.173631

                     21         22         23         24         25
                    0.6228     0.7097     0.7134     0.7148     0.7865
                     A1         A1         B1         A2         A1  
    1  O  1  S   -0.076525  -0.026768   0.000000   0.000000  -0.014358
    2  O  1  S   -0.133395  -0.056724   0.000000   0.000000   0.064759
    3  O  1  S   -0.032477  -0.023329   0.000000   0.000000   0.010032
    4  O  1  S    2.837997   1.320308   0.000000   0.000000   0.514642
    5  O  1  X    0.000000  -0.000000   0.035750   0.000000  -0.000000
    6  O  1  Y    0.000000  -0.000000   0.000000   0.000000  -0.000000
    7  O  1  Z   -0.007897  -0.029558   0.000000   0.000000  -0.031849
    8  O  1  X    0.000000  -0.000000   0.061357   0.000000  -0.000000
    9  O  1  Y    0.000000  -0.000000   0.000000   0.000000  -0.000000
   10  O  1  Z   -0.117954  -0.105529   0.000000   0.000000  -0.096166
   11  O  1  X    0.000000  -0.000000   0.343500   0.000000  -0.000000
   12  O  1  Y    0.000000  -0.000000   0.000000   0.000000  -0.000000
   13  O  1  Z    0.147753  -0.879339   0.000000   0.000000   1.544506
   14  O  1 XX   -0.011411  -0.026439   0.000000   0.000000   0.008023
   15  O  1 YY    0.018150  -0.002201   0.000000   0.000000  -0.000339
   16  O  1 ZZ   -0.006740   0.028640   0.000000   0.000000  -0.007684
   17  O  1 XY    0.000000  -0.000000   0.000000   0.022567  -0.000000
   18  O  1 XZ    0.000000  -0.000000  -0.032811   0.000000  -0.000000
   19  O  1 YZ    0.000000  -0.000000   0.000000   0.000000  -0.000000
   20  O  1 XX   -0.049061   0.034216   0.000000   0.000000  -0.023616
   21  O  1 YY    0.083176   0.050550   0.000000   0.000000   0.045709
   22  O  1 ZZ   -0.034115  -0.084766   0.000000   0.000000  -0.022093
   23  O  1 XY    0.000000  -0.000000   0.000000   0.006111  -0.000000
   24  O  1 XZ    0.000000  -0.000000   0.082630   0.000000  -0.000000
   25  O  1 YZ    0.000000  -0.000000   0.000000   0.000000  -0.000000
   26  O  1 XXX   0.000000  -0.000000   0.005139   0.000000  -0.000000
   27  O  1 YYY   0.000000  -0.000000   0.000000   0.000000  -0.000000
   28  O  1 ZZZ   0.007670  -0.011437   0.000000   0.000000  -0.020125
   29  O  1 XXY   0.000000  -0.000000   0.000000   0.000000  -0.000000
   30  O  1 XXZ   0.008058   0.000577   0.000000   0.000000   0.006408
   31  O  1 YYX   0.000000  -0.000000  -0.017028   0.000000  -0.000000
   32  O  1 YYZ  -0.018348   0.014768   0.000000   0.000000   0.020592
   33  O  1 ZZX   0.000000  -0.000000   0.010134   0.000000  -0.000000
   34  O  1 ZZY   0.000000  -0.000000   0.000000   0.000000  -0.000000
   35  O  1 XYZ   0.000000  -0.000000   0.000000   0.024421  -0.000000
   36  O  1  S    9.301096   2.779868   0.000000   0.000000  -2.037142
   37  O  1  X    0.000000  -0.000000   0.912692   0.000000  -0.000000
   38  O  1  Y    0.000000  -0.000000   0.000000   0.000000  -0.000000
   39  O  1  Z   -0.960559  -1.183712   0.000000   0.000000   1.428060
   40  O  1 XX   -0.395634  -0.814593   0.000000   0.000000  -0.283186
   41  O  1 YY    1.076812   0.095176   0.000000   0.000000   2.129748
   42  O  1 ZZ   -0.681178   0.719417   0.000000   0.000000  -1.846562
   43  O  1 XY    0.000000  -0.000000   0.000000   2.162220  -0.000000
   44  O  1 XZ    0.000000  -0.000000  -0.789864   0.000000  -0.000000
   45  O  1 YZ    0.000000  -0.000000   0.000000   0.000000  -0.000000
   46  O  1 XXX   0.000000  -0.000000  -0.047651   0.000000  -0.000000
   47  O  1 YYY   0.000000  -0.000000   0.000000   0.000000  -0.000000
   48  O  1 ZZZ   0.000192   0.074514   0.000000   0.000000   0.137866
   49  O  1 XXY   0.000000  -0.000000   0.000000   0.000000  -0.000000
   50  O  1 XXZ  -0.022447   0.024383   0.000000   0.000000  -0.030123
   51  O  1 YYX   0.000000  -0.000000   0.105400   0.000000  -0.000000
   52  O  1 YYZ   0.022190  -0.124354   0.000000   0.000000  -0.154844
   53  O  1 ZZX   0.000000  -0.000000  -0.041470   0.000000  -0.000000
   54  O  1 ZZY   0.000000  -0.000000   0.000000   0.000000  -0.000000
   55  O  1 XYZ   0.000000  -0.000000   0.000000  -0.183586  -0.000000
   56  H  2  S    0.107846   0.008374   0.000000   0.000000  -0.048404
   57  H  2  S    0.325451  -0.549032   0.000000   0.000000  -1.660745
   58  H  2  S   -6.106105  -1.677592   0.000000   0.000000   1.903849
   59  H  2  X    0.000000  -0.000000   0.004583  -0.036821  -0.000000
   60  H  2  Y    0.014726   0.002571   0.000000   0.000000  -0.044489
   61  H  2  Z    0.032129  -0.009308   0.000000   0.000000   0.033347
   62  H  2  X    0.000000  -0.000000  -0.100719   0.378688  -0.000000
   63  H  2  Y   -0.331171  -0.234339   0.000000   0.000000   0.171961
   64  H  2  Z   -0.352863  -0.027569   0.000000   0.000000  -0.423300
   65  H  2 XX    0.010431   0.018072   0.000000   0.000000   0.001677
   66  H  2 YY   -0.018245  -0.003201   0.000000   0.000000  -0.009337
   67  H  2 ZZ    0.007813  -0.014871   0.000000   0.000000   0.007660
   68  H  2 XY    0.000000  -0.000000  -0.015295   0.003164  -0.000000
   69  H  2 XZ    0.000000  -0.000000   0.012653  -0.006648  -0.000000
   70  H  2 YZ   -0.016197  -0.000044   0.000000   0.000000   0.005417
   71  H  2  S   -0.333950  -0.105895   0.000000   0.000000  -0.015496
   72  H  2  X    0.000000  -0.000000  -0.726009   1.399019  -0.000000
   73  H  2  Y   -1.185845  -0.501759   0.000000   0.000000   0.895490
   74  H  2  Z   -1.206353   0.461523   0.000000   0.000000  -1.025446
   75  H  2 XX    0.087469  -0.181095   0.000000   0.000000  -0.172806
   76  H  2 YY    0.131469  -0.178095   0.000000   0.000000   0.620132
   77  H  2 ZZ   -0.218938   0.359189   0.000000   0.000000  -0.447326
   78  H  2 XY    0.000000  -0.000000   0.096943   0.719431  -0.000000
   79  H  2 XZ    0.000000  -0.000000  -0.345945   0.390589  -0.000000
   80  H  2 YZ   -0.257186  -0.145620   0.000000   0.000000  -0.617295
   81  H  3  S    0.107846   0.008374   0.000000   0.000000  -0.048404
   82  H  3  S    0.325451  -0.549032   0.000000   0.000000  -1.660745
   83  H  3  S   -6.106105  -1.677592   0.000000   0.000000   1.903849
   84  H  3  X    0.000000  -0.000000   0.004583   0.036821  -0.000000
   85  H  3  Y   -0.014726  -0.002571   0.000000   0.000000   0.044489
   86  H  3  Z    0.032129  -0.009308   0.000000   0.000000   0.033347
   87  H  3  X    0.000000  -0.000000  -0.100719  -0.378688  -0.000000
   88  H  3  Y    0.331171   0.234339   0.000000   0.000000  -0.171961
   89  H  3  Z   -0.352863  -0.027569   0.000000   0.000000  -0.423300
   90  H  3 XX    0.010431   0.018072   0.000000   0.000000   0.001677
   91  H  3 YY   -0.018245  -0.003201   0.000000   0.000000  -0.009337
   92  H  3 ZZ    0.007813  -0.014871   0.000000   0.000000   0.007660
   93  H  3 XY    0.000000  -0.000000   0.015295   0.003164  -0.000000
   94  H  3 XZ    0.000000  -0.000000   0.012653   0.006648  -0.000000
   95  H  3 YZ    0.016197   0.000044   0.000000   0.000000  -0.005417
   96  H  3  S   -0.333950  -0.105895   0.000000   0.000000  -0.015496
   97  H  3  X    0.000000  -0.000000  -0.726009  -1.399019  -0.000000
   98  H  3  Y    1.185845   0.501759   0.000000   0.000000  -0.895490
   99  H  3  Z   -1.206353   0.461523   0.000000   0.000000  -1.025446
  100  H  3 XX    0.087469  -0.181095   0.000000   0.000000  -0.172806
  101  H  3 YY    0.131469  -0.178095   0.000000   0.000000   0.620132
  102  H  3 ZZ   -0.218938   0.359189   0.000000   0.000000  -0.447326
  103  H  3 XY    0.000000  -0.000000  -0.096943   0.719431  -0.000000
  104  H  3 XZ    0.000000  -0.000000  -0.345945  -0.390589  -0.000000
  105  H  3 YZ    0.257186   0.145620   0.000000   0.000000   0.617295

                     26         27         28         29         30
                    0.8601     0.8674     0.8848     0.9291     0.9310
                     B1         B2         A2         A1         B2  
    1  O  1  S   -0.000000  -0.000000   0.000000  -0.099101  -0.000000
    2  O  1  S   -0.000000  -0.000000   0.000000  -0.156092  -0.000000
    3  O  1  S   -0.000000  -0.000000   0.000000  -0.119266  -0.000000
    4  O  1  S   -0.000000  -0.000000   0.000000   7.994143  -0.000000
    5  O  1  X   -0.022341  -0.000000   0.000000   0.000000  -0.000000
    6  O  1  Y   -0.000000   0.082432   0.000000   0.000000  -0.133565
    7  O  1  Z   -0.000000  -0.000000   0.000000   0.205759  -0.000000
    8  O  1  X   -0.095560  -0.000000   0.000000   0.000000  -0.000000
    9  O  1  Y   -0.000000   0.133958   0.000000   0.000000  -0.115642
   10  O  1  Z   -0.000000  -0.000000   0.000000   0.209409  -0.000000
   11  O  1  X    2.883771  -0.000000   0.000000   0.000000  -0.000000
   12  O  1  Y   -0.000000   0.364496   0.000000   0.000000   2.742290
   13  O  1  Z   -0.000000  -0.000000   0.000000  -4.644032  -0.000000
   14  O  1 XX   -0.000000  -0.000000   0.000000   0.025910  -0.000000
   15  O  1 YY   -0.000000  -0.000000   0.000000  -0.018726  -0.000000
   16  O  1 ZZ   -0.000000  -0.000000   0.000000  -0.007184  -0.000000
   17  O  1 XY   -0.000000  -0.000000  -0.015783   0.000000  -0.000000
   18  O  1 XZ   -0.010852  -0.000000   0.000000   0.000000  -0.000000
   19  O  1 YZ   -0.000000  -0.012175   0.000000   0.000000   0.003445
   20  O  1 XX   -0.000000  -0.000000   0.000000  -0.331399  -0.000000
   21  O  1 YY   -0.000000  -0.000000   0.000000   0.391316  -0.000000
   22  O  1 ZZ   -0.000000  -0.000000   0.000000  -0.059917  -0.000000
   23  O  1 XY   -0.000000  -0.000000   0.069319   0.000000  -0.000000
   24  O  1 XZ   -0.001280  -0.000000   0.000000   0.000000  -0.000000
   25  O  1 YZ   -0.000000   0.049608   0.000000   0.000000  -0.070519
   26  O  1 XXX   0.022441  -0.000000   0.000000   0.000000  -0.000000
   27  O  1 YYY  -0.000000  -0.009663   0.000000   0.000000  -0.028822
   28  O  1 ZZZ  -0.000000  -0.000000   0.000000   0.003578  -0.000000
   29  O  1 XXY  -0.000000   0.028995   0.000000   0.000000   0.008455
   30  O  1 XXZ  -0.000000  -0.000000   0.000000  -0.006451  -0.000000
   31  O  1 YYX  -0.015075  -0.000000   0.000000   0.000000  -0.000000
   32  O  1 YYZ  -0.000000  -0.000000   0.000000   0.001650  -0.000000
   33  O  1 ZZX  -0.015033  -0.000000   0.000000   0.000000  -0.000000
   34  O  1 ZZY  -0.000000  -0.016031   0.000000   0.000000   0.030214
   35  O  1 XYZ  -0.000000  -0.000000  -0.006993   0.000000  -0.000000
   36  O  1  S   -0.000000  -0.000000   0.000000   8.293554  -0.000000
   37  O  1  X    1.349559  -0.000000   0.000000   0.000000  -0.000000
   38  O  1  Y   -0.000000  -0.850493   0.000000   0.000000   2.902792
   39  O  1  Z   -0.000000  -0.000000   0.000000  -0.867610  -0.000000
   40  O  1 XX   -0.000000  -0.000000   0.000000  -0.846871  -0.000000
   41  O  1 YY   -0.000000  -0.000000   0.000000   0.711163  -0.000000
   42  O  1 ZZ   -0.000000  -0.000000   0.000000   0.135708  -0.000000
   43  O  1 XY   -0.000000  -0.000000   0.343752   0.000000  -0.000000
   44  O  1 XZ   -1.565906  -0.000000   0.000000   0.000000  -0.000000
   45  O  1 YZ   -0.000000  -1.019529   0.000000   0.000000   1.096348
   46  O  1 XXX  -0.160585  -0.000000   0.000000   0.000000  -0.000000
   47  O  1 YYY  -0.000000   0.024182   0.000000   0.000000   0.249120
   48  O  1 ZZZ  -0.000000  -0.000000   0.000000   0.158715  -0.000000
   49  O  1 XXY  -0.000000  -0.144354   0.000000   0.000000  -0.096284
   50  O  1 XXZ  -0.000000  -0.000000   0.000000   0.157808  -0.000000
   51  O  1 YYX   0.136472  -0.000000   0.000000   0.000000  -0.000000
   52  O  1 YYZ  -0.000000  -0.000000   0.000000  -0.370747  -0.000000
   53  O  1 ZZX   0.078976  -0.000000   0.000000   0.000000  -0.000000
   54  O  1 ZZY  -0.000000   0.111911   0.000000   0.000000  -0.237945
   55  O  1 XYZ  -0.000000  -0.000000   0.035605   0.000000  -0.000000
   56  H  2  S   -0.000000   0.026558   0.000000   0.092720  -0.062381
   57  H  2  S   -0.000000   1.223578   0.000000  -2.650268  -0.200019
   58  H  2  S   -0.000000  -1.202398   0.000000  -5.372985   4.251549
   59  H  2  X    0.023279  -0.000000  -0.002851   0.000000  -0.000000
   60  H  2  Y   -0.000000   0.003967   0.000000  -0.004682  -0.006647
   61  H  2  Z   -0.000000   0.010539   0.000000  -0.019899  -0.002444
   62  H  2  X   -0.259978  -0.000000  -0.027068   0.000000  -0.000000
   63  H  2  Y   -0.000000  -0.019989   0.000000  -1.443636   0.385840
   64  H  2  Z   -0.000000  -0.144775   0.000000  -0.445259   0.357343
   65  H  2 XX   -0.000000   0.033115   0.000000   0.033104   0.002715
   66  H  2 YY   -0.000000  -0.009335   0.000000  -0.054099   0.008169
   67  H  2 ZZ   -0.000000  -0.023780   0.000000   0.020996  -0.010884
   68  H  2 XY    0.021792  -0.000000  -0.003398   0.000000  -0.000000
   69  H  2 XZ   -0.018183  -0.000000  -0.045436   0.000000  -0.000000
   70  H  2 YZ   -0.000000  -0.005088   0.000000  -0.064333   0.016760
   71  H  2  S   -0.000000  -0.103017   0.000000  -0.415746   0.836238
   72  H  2  X   -1.658812  -0.000000   0.376463   0.000000  -0.000000
   73  H  2  Y   -0.000000   0.183039   0.000000  -1.987881   0.022765
   74  H  2  Z   -0.000000  -0.617740   0.000000  -0.294893   2.097344
   75  H  2 XX   -0.000000  -0.560388   0.000000   0.489108  -0.366923
   76  H  2 YY   -0.000000   0.247359   0.000000  -1.083359  -0.630154
   77  H  2 ZZ   -0.000000   0.313029   0.000000   0.594251   0.997077
   78  H  2 XY   -1.268192  -0.000000   0.243965   0.000000  -0.000000
   79  H  2 XZ   -0.054615  -0.000000   0.891909   0.000000  -0.000000
   80  H  2 YZ   -0.000000  -0.244894   0.000000  -0.145328   0.787733
   81  H  3  S   -0.000000  -0.026558   0.000000   0.092720   0.062381
   82  H  3  S   -0.000000  -1.223578   0.000000  -2.650268   0.200019
   83  H  3  S   -0.000000   1.202398   0.000000  -5.372985  -4.251549
   84  H  3  X    0.023279  -0.000000   0.002851   0.000000  -0.000000
   85  H  3  Y   -0.000000   0.003967   0.000000   0.004682  -0.006647
   86  H  3  Z   -0.000000  -0.010539   0.000000  -0.019899   0.002444
   87  H  3  X   -0.259978  -0.000000   0.027068   0.000000  -0.000000
   88  H  3  Y   -0.000000  -0.019989   0.000000   1.443636   0.385840
   89  H  3  Z   -0.000000   0.144775   0.000000  -0.445259  -0.357343
   90  H  3 XX   -0.000000  -0.033115   0.000000   0.033104  -0.002715
   91  H  3 YY   -0.000000   0.009335   0.000000  -0.054099  -0.008169
   92  H  3 ZZ   -0.000000   0.023780   0.000000   0.020996   0.010884
   93  H  3 XY   -0.021792  -0.000000  -0.003398   0.000000  -0.000000
   94  H  3 XZ   -0.018183  -0.000000   0.045436   0.000000  -0.000000
   95  H  3 YZ   -0.000000  -0.005088   0.000000   0.064333   0.016760
   96  H  3  S   -0.000000   0.103017   0.000000  -0.415746  -0.836238
   97  H  3  X   -1.658812  -0.000000  -0.376463   0.000000  -0.000000
   98  H  3  Y   -0.000000   0.183039   0.000000   1.987881   0.022765
   99  H  3  Z   -0.000000   0.617740   0.000000  -0.294893  -2.097344
  100  H  3 XX   -0.000000   0.560388   0.000000   0.489108   0.366923
  101  H  3 YY   -0.000000  -0.247359   0.000000  -1.083359   0.630154
  102  H  3 ZZ   -0.000000  -0.313029   0.000000   0.594251  -0.997077
  103  H  3 XY    1.268192  -0.000000   0.243965   0.000000  -0.000000
  104  H  3 XZ   -0.054615  -0.000000  -0.891909   0.000000  -0.000000
  105  H  3 YZ   -0.000000  -0.244894   0.000000   0.145328   0.787733

                     31         32         33         34         35
                    0.9726     0.9969     1.0038     1.0139     1.0572
                     B1         A1         B2         A1         B1  
    1  O  1  S    0.000000  -0.021597   0.000000  -0.007633  -0.000000
    2  O  1  S    0.000000   0.181689   0.000000  -0.029856  -0.000000
    3  O  1  S    0.000000   0.031130   0.000000  -0.017304  -0.000000
    4  O  1  S    0.000000  -2.896289   0.000000   1.799591  -0.000000
    5  O  1  X   -0.191647  -0.000000   0.000000   0.000000  -0.175585
    6  O  1  Y    0.000000  -0.000000  -0.167868   0.000000  -0.000000
    7  O  1  Z    0.000000  -0.017607   0.000000  -0.005695  -0.000000
    8  O  1  X   -0.613926  -0.000000   0.000000   0.000000  -0.582483
    9  O  1  Y    0.000000  -0.000000   0.044412   0.000000  -0.000000
   10  O  1  Z    0.000000   0.160679   0.000000  -0.102141  -0.000000
   11  O  1  X    2.664118  -0.000000   0.000000   0.000000   0.013685
   12  O  1  Y    0.000000  -0.000000   0.775564   0.000000  -0.000000
   13  O  1  Z    0.000000  -2.011025   0.000000   0.555990  -0.000000
   14  O  1 XX    0.000000  -0.003871   0.000000  -0.016039  -0.000000
   15  O  1 YY    0.000000  -0.000593   0.000000  -0.005449  -0.000000
   16  O  1 ZZ    0.000000   0.004464   0.000000   0.021488  -0.000000
   17  O  1 XY    0.000000  -0.000000   0.000000   0.000000  -0.000000
   18  O  1 XZ    0.021195  -0.000000   0.000000   0.000000  -0.016280
   19  O  1 YZ    0.000000  -0.000000   0.004212   0.000000  -0.000000
   20  O  1 XX    0.000000   0.002460   0.000000   0.045799  -0.000000
   21  O  1 YY    0.000000  -0.005077   0.000000   0.060078  -0.000000
   22  O  1 ZZ    0.000000   0.002618   0.000000  -0.105877  -0.000000
   23  O  1 XY    0.000000  -0.000000   0.000000   0.000000  -0.000000
   24  O  1 XZ   -0.102563  -0.000000   0.000000   0.000000   0.066793
   25  O  1 YZ    0.000000  -0.000000  -0.111368   0.000000  -0.000000
   26  O  1 XXX   0.015341  -0.000000   0.000000   0.000000  -0.006334
   27  O  1 YYY   0.000000  -0.000000   0.004273   0.000000  -0.000000
   28  O  1 ZZZ   0.000000  -0.007715   0.000000   0.014924  -0.000000
   29  O  1 XXY   0.000000  -0.000000  -0.009554   0.000000  -0.000000
   30  O  1 XXZ   0.000000  -0.015386   0.000000  -0.006379  -0.000000
   31  O  1 YYX  -0.031702  -0.000000   0.000000   0.000000   0.016200
   32  O  1 YYZ   0.000000   0.025737   0.000000  -0.013644  -0.000000
   33  O  1 ZZX   0.011120  -0.000000   0.000000   0.000000  -0.007701
   34  O  1 ZZY   0.000000  -0.000000   0.003822   0.000000  -0.000000
   35  O  1 XYZ   0.000000  -0.000000   0.000000   0.000000  -0.000000
   36  O  1  S    0.000000  -2.587295   0.000000  -0.186723  -0.000000
   37  O  1  X    0.276384  -0.000000   0.000000   0.000000  -0.267678
   38  O  1  Y    0.000000  -0.000000   0.357259   0.000000  -0.000000
   39  O  1  Z    0.000000  -0.251345   0.000000   0.322029  -0.000000
   40  O  1 XX    0.000000  -1.819663   0.000000  -1.275477  -0.000000
   41  O  1 YY    0.000000   1.708736   0.000000   0.597936  -0.000000
   42  O  1 ZZ    0.000000   0.110927   0.000000   0.677541  -0.000000
   43  O  1 XY    0.000000  -0.000000   0.000000   0.000000  -0.000000
   44  O  1 XZ    0.346121  -0.000000   0.000000   0.000000  -0.723580
   45  O  1 YZ    0.000000  -0.000000   0.483468   0.000000  -0.000000
   46  O  1 XXX  -0.126992  -0.000000   0.000000   0.000000   0.030130
   47  O  1 YYY   0.000000  -0.000000  -0.043436   0.000000  -0.000000
   48  O  1 ZZZ   0.000000   0.133341   0.000000  -0.070945  -0.000000
   49  O  1 XXY   0.000000  -0.000000   0.076009   0.000000  -0.000000
   50  O  1 XXZ   0.000000   0.149420   0.000000   0.034608  -0.000000
   51  O  1 YYX   0.228154  -0.000000   0.000000   0.000000  -0.081414
   52  O  1 YYZ   0.000000  -0.328316   0.000000   0.060574  -0.000000
   53  O  1 ZZX  -0.057776  -0.000000   0.000000   0.000000   0.040991
   54  O  1 ZZY   0.000000  -0.000000  -0.017733   0.000000  -0.000000
   55  O  1 XYZ   0.000000  -0.000000   0.000000   0.000000  -0.000000
   56  H  2  S    0.000000  -0.072894  -0.076120   0.027179  -0.000000
   57  H  2  S    0.000000  -2.470937  -0.355522  -0.745484  -0.000000
   58  H  2  S    0.000000   3.023248   4.527112   0.012941  -0.000000
   59  H  2  X   -0.001647  -0.000000   0.000000   0.000000   0.007131
   60  H  2  Y    0.000000  -0.036438  -0.023026   0.011700  -0.000000
   61  H  2  Z    0.000000  -0.016714  -0.017412   0.003057  -0.000000
   62  H  2  X   -0.170906  -0.000000   0.000000   0.000000  -0.036260
   63  H  2  Y    0.000000  -0.257090   0.233413  -0.164157  -0.000000
   64  H  2  Z    0.000000  -0.127004   0.270377  -0.061141  -0.000000
   65  H  2 XX    0.000000  -0.001719   0.001185  -0.033056  -0.000000
   66  H  2 YY    0.000000  -0.025837  -0.009201  -0.001155  -0.000000
   67  H  2 ZZ    0.000000   0.027556   0.008016   0.034211  -0.000000
   68  H  2 XY   -0.032364  -0.000000   0.000000   0.000000  -0.016984
   69  H  2 XZ    0.002652  -0.000000   0.000000   0.000000  -0.032323
   70  H  2 YZ    0.000000  -0.031605  -0.002153  -0.010715  -0.000000
   71  H  2  S    0.000000   0.172107   0.580754  -0.022000  -0.000000
   72  H  2  X   -0.870505  -0.000000   0.000000   0.000000   0.165576
   73  H  2  Y    0.000000   1.814887   2.693516  -0.086216  -0.000000
   74  H  2  Z    0.000000   1.428387   0.795082  -0.494787  -0.000000
   75  H  2 XX    0.000000  -0.278454  -0.613335   0.954533  -0.000000
   76  H  2 YY    0.000000   0.556375   1.084114  -0.117542  -0.000000
   77  H  2 ZZ    0.000000  -0.277921  -0.470779  -0.836991  -0.000000
   78  H  2 XY   -0.326037  -0.000000   0.000000   0.000000   0.347559
   79  H  2 XZ   -0.752799  -0.000000   0.000000   0.000000   0.738992
   80  H  2 YZ    0.000000   1.175971   0.856243  -0.217854  -0.000000
   81  H  3  S    0.000000  -0.072894   0.076120   0.027179  -0.000000
   82  H  3  S    0.000000  -2.470937   0.355522  -0.745484  -0.000000
   83  H  3  S    0.000000   3.023248  -4.527112   0.012941  -0.000000
   84  H  3  X   -0.001647  -0.000000   0.000000   0.000000   0.007131
   85  H  3  Y    0.000000   0.036438  -0.023026  -0.011700  -0.000000
   86  H  3  Z    0.000000  -0.016714   0.017412   0.003057  -0.000000
   87  H  3  X   -0.170906  -0.000000   0.000000   0.000000  -0.036260
   88  H  3  Y    0.000000   0.257090   0.233413   0.164157  -0.000000
   89  H  3  Z    0.000000  -0.127004  -0.270377  -0.061141  -0.000000
   90  H  3 XX    0.000000  -0.001719  -0.001185  -0.033056  -0.000000
   91  H  3 YY    0.000000  -0.025837   0.009201  -0.001155  -0.000000
   92  H  3 ZZ    0.000000   0.027556  -0.008016   0.034211  -0.000000
   93  H  3 XY    0.032364  -0.000000   0.000000   0.000000   0.016984
   94  H  3 XZ    0.002652  -0.000000   0.000000   0.000000  -0.032323
   95  H  3 YZ    0.000000   0.031605  -0.002153   0.010715  -0.000000
   96  H  3  S    0.000000   0.172107  -0.580754  -0.022000  -0.000000
   97  H  3  X   -0.870505  -0.000000   0.000000   0.000000   0.165576
   98  H  3  Y    0.000000  -1.814887   2.693516   0.086216  -0.000000
   99  H  3  Z    0.000000   1.428387  -0.795082  -0.494787  -0.000000
  100  H  3 XX    0.000000  -0.278454   0.613335   0.954533  -0.000000
  101  H  3 YY    0.000000   0.556375  -1.084114  -0.117542  -0.000000
  102  H  3 ZZ    0.000000  -0.277921   0.470779  -0.836991  -0.000000
  103  H  3 XY    0.326037  -0.000000   0.000000   0.000000  -0.347559
  104  H  3 XZ   -0.752799  -0.000000   0.000000   0.000000   0.738992
  105  H  3 YZ    0.000000  -1.175971   0.856243   0.217854  -0.000000

                     36         37         38         39         40
                    1.0891     1.0932     1.1154     1.3616     1.5013
                     A1         A2         B2         B2         B2  
    1  O  1  S   -0.012180   0.000000  -0.000000  -0.000000  -0.000000
    2  O  1  S    0.008873   0.000000  -0.000000  -0.000000  -0.000000
    3  O  1  S   -0.033679   0.000000  -0.000000  -0.000000  -0.000000
    4  O  1  S    1.777108   0.000000  -0.000000  -0.000000  -0.000000
    5  O  1  X   -0.000000   0.000000  -0.000000  -0.000000  -0.000000
    6  O  1  Y   -0.000000   0.000000  -0.136132  -0.056398  -0.013087
    7  O  1  Z    0.180603   0.000000  -0.000000  -0.000000  -0.000000
    8  O  1  X   -0.000000   0.000000  -0.000000  -0.000000  -0.000000
    9  O  1  Y   -0.000000   0.000000  -0.215957  -0.003431  -0.062897
   10  O  1  Z    0.439716   0.000000  -0.000000  -0.000000  -0.000000
   11  O  1  X   -0.000000   0.000000  -0.000000  -0.000000  -0.000000
   12  O  1  Y   -0.000000   0.000000   1.316496   9.283957  11.152218
   13  O  1  Z   -0.289283   0.000000  -0.000000  -0.000000  -0.000000
   14  O  1 XX    0.014043   0.000000  -0.000000  -0.000000  -0.000000
   15  O  1 YY   -0.034078   0.000000  -0.000000  -0.000000  -0.000000
   16  O  1 ZZ    0.020035   0.000000  -0.000000  -0.000000  -0.000000
   17  O  1 XY   -0.000000  -0.033513  -0.000000  -0.000000  -0.000000
   18  O  1 XZ   -0.000000   0.000000  -0.000000  -0.000000  -0.000000
   19  O  1 YZ   -0.000000   0.000000   0.029098   0.052756   0.013948
   20  O  1 XX   -0.145432   0.000000  -0.000000  -0.000000  -0.000000
   21  O  1 YY    0.242515   0.000000  -0.000000  -0.000000  -0.000000
   22  O  1 ZZ   -0.097083   0.000000  -0.000000  -0.000000  -0.000000
   23  O  1 XY   -0.000000   0.123283  -0.000000  -0.000000  -0.000000
   24  O  1 XZ   -0.000000   0.000000  -0.000000  -0.000000  -0.000000
   25  O  1 YZ   -0.000000   0.000000  -0.193304  -0.327632  -0.236406
   26  O  1 XXX  -0.000000   0.000000  -0.000000  -0.000000  -0.000000
   27  O  1 YYY  -0.000000   0.000000  -0.003882   0.018670  -0.040904
   28  O  1 ZZZ   0.004509   0.000000  -0.000000  -0.000000  -0.000000
   29  O  1 XXY  -0.000000   0.000000   0.003037   0.009433   0.014300
   30  O  1 XXZ   0.010044   0.000000  -0.000000  -0.000000  -0.000000
   31  O  1 YYX  -0.000000   0.000000  -0.000000  -0.000000  -0.000000
   32  O  1 YYZ  -0.016094   0.000000  -0.000000  -0.000000  -0.000000
   33  O  1 ZZX  -0.000000   0.000000  -0.000000  -0.000000  -0.000000
   34  O  1 ZZY  -0.000000   0.000000   0.002171  -0.034482   0.040578
   35  O  1 XYZ  -0.000000   0.022895  -0.000000  -0.000000  -0.000000
   36  O  1  S    4.069966   0.000000  -0.000000  -0.000000  -0.000000
   37  O  1  X   -0.000000   0.000000  -0.000000  -0.000000  -0.000000
   38  O  1  Y   -0.000000   0.000000   0.218891   1.915773   1.945648
   39  O  1  Z   -0.440924   0.000000  -0.000000  -0.000000  -0.000000
   40  O  1 XX    0.141270   0.000000  -0.000000  -0.000000  -0.000000
   41  O  1 YY    0.005410   0.000000  -0.000000  -0.000000  -0.000000
   42  O  1 ZZ   -0.146680   0.000000  -0.000000  -0.000000  -0.000000
   43  O  1 XY   -0.000000  -0.126415  -0.000000  -0.000000  -0.000000
   44  O  1 XZ   -0.000000   0.000000  -0.000000  -0.000000  -0.000000
   45  O  1 YZ   -0.000000   0.000000   1.072411  -4.902395  -2.230005
   46  O  1 XXX  -0.000000   0.000000  -0.000000  -0.000000  -0.000000
   47  O  1 YYY  -0.000000   0.000000   0.134342  -0.009977   0.541767
   48  O  1 ZZZ   0.044951   0.000000  -0.000000  -0.000000  -0.000000
   49  O  1 XXY  -0.000000   0.000000  -0.093244  -0.304232  -0.350486
   50  O  1 XXZ  -0.005497   0.000000  -0.000000  -0.000000  -0.000000
   51  O  1 YYX  -0.000000   0.000000  -0.000000  -0.000000  -0.000000
   52  O  1 YYZ  -0.054812   0.000000  -0.000000  -0.000000  -0.000000
   53  O  1 ZZX  -0.000000   0.000000  -0.000000  -0.000000  -0.000000
   54  O  1 ZZY  -0.000000   0.000000  -0.086995   0.317618  -0.376370
   55  O  1 XYZ  -0.000000  -0.134940  -0.000000  -0.000000  -0.000000
   56  H  2  S    0.015031   0.000000  -0.006978   0.008466   0.025356
   57  H  2  S   -0.167758   0.000000  -0.452400   6.549334   6.102509
   58  H  2  S   -2.665059   0.000000   3.487079   4.960883   3.596800
   59  H  2  X   -0.000000   0.004443  -0.000000  -0.000000  -0.000000
   60  H  2  Y   -0.010621   0.000000   0.017059  -0.024790   0.012037
   61  H  2  Z    0.005030   0.000000  -0.015039   0.033263  -0.029610
   62  H  2  X   -0.000000   0.135167  -0.000000  -0.000000  -0.000000
   63  H  2  Y   -0.445196   0.000000   0.199730   2.419329   1.056625
[...]
                     B2         B2         A1         A2         B1  
    1  O  1  S    0.000000   0.000000   0.010921   0.000000   0.000000
    2  O  1  S    0.000000   0.000000   0.015057   0.000000   0.000000
    3  O  1  S    0.000000   0.000000   0.004607   0.000000   0.000000
    4  O  1  S    0.000000   0.000000  -0.182293   0.000000   0.000000
    5  O  1  X    0.000000   0.000000   0.000000   0.000000   0.085466
    6  O  1  Y    0.093709  -0.067087   0.000000   0.000000   0.000000
    7  O  1  Z    0.000000   0.000000   0.000373   0.000000   0.000000
    8  O  1  X    0.000000   0.000000   0.000000   0.000000   0.053792
    9  O  1  Y   -0.001027  -0.030775   0.000000   0.000000   0.000000
   10  O  1  Z    0.000000   0.000000   0.001264   0.000000   0.000000
   11  O  1  X    0.000000   0.000000   0.000000   0.000000   1.952993
   12  O  1  Y   -1.628398  -0.826299   0.000000   0.000000   0.000000
   13  O  1  Z    0.000000   0.000000  -0.779422   0.000000   0.000000
   14  O  1 XX    0.000000   0.000000  -0.000472   0.000000   0.000000
   15  O  1 YY    0.000000   0.000000   0.006953   0.000000   0.000000
   16  O  1 ZZ    0.000000   0.000000  -0.006481   0.000000   0.000000
   17  O  1 XY    0.000000   0.000000   0.000000  -0.005364   0.000000
   18  O  1 XZ    0.000000   0.000000   0.000000   0.000000   0.006447
   19  O  1 YZ   -0.004008  -0.003988   0.000000   0.000000   0.000000
   20  O  1 XX    0.000000   0.000000  -0.005620   0.000000   0.000000
   21  O  1 YY    0.000000   0.000000  -0.029717   0.000000   0.000000
   22  O  1 ZZ    0.000000   0.000000   0.035337   0.000000   0.000000
   23  O  1 XY    0.000000   0.000000   0.000000   0.013840   0.000000
   24  O  1 XZ    0.000000   0.000000   0.000000   0.000000  -0.034157
   25  O  1 YZ    0.089007  -0.017438   0.000000   0.000000   0.000000
   26  O  1 XXX   0.000000   0.000000   0.000000   0.000000   0.009989
   27  O  1 YYY   0.002581  -0.001443   0.000000   0.000000   0.000000
   28  O  1 ZZZ   0.000000   0.000000   0.005847   0.000000   0.000000
   29  O  1 XXY  -0.000352  -0.006916   0.000000   0.000000   0.000000
   30  O  1 XXZ   0.000000   0.000000  -0.002215   0.000000   0.000000
   31  O  1 YYX   0.000000   0.000000   0.000000   0.000000  -0.007234
   32  O  1 YYZ   0.000000   0.000000  -0.005630   0.000000   0.000000
   33  O  1 ZZX   0.000000   0.000000   0.000000   0.000000  -0.006168
   34  O  1 ZZY  -0.003111   0.008852   0.000000   0.000000   0.000000
   35  O  1 XYZ   0.000000   0.000000   0.000000   0.011792   0.000000
   36  O  1  S    0.000000   0.000000  -2.706980   0.000000   0.000000
   37  O  1  X    0.000000   0.000000   0.000000   0.000000   1.930564
   38  O  1  Y   -3.635506  -1.695540   0.000000   0.000000   0.000000
   39  O  1  Z    0.000000   0.000000  -0.573206   0.000000   0.000000
   40  O  1 XX    0.000000   0.000000   0.137150   0.000000   0.000000
   41  O  1 YY    0.000000   0.000000  -0.774077   0.000000   0.000000
   42  O  1 ZZ    0.000000   0.000000   0.636927   0.000000   0.000000
   43  O  1 XY    0.000000   0.000000   0.000000   0.696707   0.000000
   44  O  1 XZ    0.000000   0.000000   0.000000   0.000000  -0.569899
   45  O  1 YZ    0.465192   0.700215   0.000000   0.000000   0.000000
   46  O  1 XXX   0.000000   0.000000   0.000000   0.000000  -0.096608
   47  O  1 YYY  -0.014758   0.011606   0.000000   0.000000   0.000000
   48  O  1 ZZZ   0.000000   0.000000  -0.063246   0.000000   0.000000
   49  O  1 XXY   0.034998   0.044054   0.000000   0.000000   0.000000
   50  O  1 XXZ   0.000000   0.000000   0.019703   0.000000   0.000000
   51  O  1 YYX   0.000000   0.000000   0.000000   0.000000   0.082108
   52  O  1 YYZ   0.000000   0.000000   0.065150   0.000000   0.000000
   53  O  1 ZZX   0.000000   0.000000   0.000000   0.000000   0.047505
   54  O  1 ZZY  -0.015198  -0.059626   0.000000   0.000000   0.000000
   55  O  1 XYZ   0.000000   0.000000   0.000000  -0.097589   0.000000
   56  H  2  S    0.000004  -0.040390   0.031789   0.000000   0.000000
   57  H  2  S   -0.917597  -0.681054   0.152461   0.000000   0.000000
   58  H  2  S   -4.891141   0.021067   1.443523   0.000000   0.000000
   59  H  2  X    0.000000   0.000000   0.000000  -0.001516   0.007303
   60  H  2  Y   -0.011145   0.000214   0.004819   0.000000   0.000000
   61  H  2  Z   -0.004916   0.009065  -0.005928   0.000000   0.000000
   62  H  2  X    0.000000   0.000000   0.000000   0.282221  -0.341111
   63  H  2  Y   -0.247238  -0.000025  -0.173590   0.000000   0.000000
   64  H  2  Z   -0.258011   0.025305   0.282066   0.000000   0.000000
   65  H  2 XX    0.011892   0.000936   0.004258   0.000000   0.000000
   66  H  2 YY   -0.010176  -0.002561  -0.007926   0.000000   0.000000
   67  H  2 ZZ   -0.001716   0.001624   0.003667   0.000000   0.000000
   68  H  2 XY    0.000000   0.000000   0.000000   0.004842  -0.007901
   69  H  2 XZ    0.000000   0.000000   0.000000   0.003277  -0.006023
   70  H  2 YZ   -0.016988   0.002691   0.010045   0.000000   0.000000
   71  H  2  S   -3.353577  -0.066076   0.094424   0.000000   0.000000
   72  H  2  X    0.000000   0.000000   0.000000   1.794679  -1.905504
   73  H  2  Y   -1.112450   1.296523  -0.882439   0.000000   0.000000
   74  H  2  Z   -1.205516   0.796453   1.073565   0.000000   0.000000
   75  H  2 XX    0.015119  -0.160607  -0.009962   0.000000   0.000000
   76  H  2 YY    0.033580   0.109566  -0.245901   0.000000   0.000000
   77  H  2 ZZ   -0.048699   0.051041   0.255863   0.000000   0.000000
   78  H  2 XY    0.000000   0.000000   0.000000   0.249217  -0.310607
   79  H  2 XZ    0.000000   0.000000   0.000000   0.222330  -0.192876
   80  H  2 YZ   -0.094928   0.152527   0.025906   0.000000   0.000000
   81  H  3  S   -0.000004   0.040390   0.031789   0.000000   0.000000
   82  H  3  S    0.917597   0.681054   0.152461   0.000000   0.000000
   83  H  3  S    4.891141  -0.021067   1.443523   0.000000   0.000000
   84  H  3  X    0.000000   0.000000   0.000000   0.001516   0.007303
   85  H  3  Y   -0.011145   0.000214  -0.004819   0.000000   0.000000
   86  H  3  Z    0.004916  -0.009065  -0.005928   0.000000   0.000000
   87  H  3  X    0.000000   0.000000   0.000000  -0.282221  -0.341111
   88  H  3  Y   -0.247238  -0.000025   0.173590   0.000000   0.000000
   89  H  3  Z    0.258011  -0.025305   0.282066   0.000000   0.000000
   90  H  3 XX   -0.011892  -0.000936   0.004258   0.000000   0.000000
   91  H  3 YY    0.010176   0.002561  -0.007926   0.000000   0.000000
   92  H  3 ZZ    0.001716  -0.001624   0.003667   0.000000   0.000000
   93  H  3 XY    0.000000   0.000000   0.000000   0.004842   0.007901
   94  H  3 XZ    0.000000   0.000000   0.000000  -0.003277  -0.006023
   95  H  3 YZ   -0.016988   0.002691  -0.010045   0.000000   0.000000
   96  H  3  S    3.353577   0.066076   0.094424   0.000000   0.000000
   97  H  3  X    0.000000   0.000000   0.000000  -1.794679  -1.905504
   98  H  3  Y   -1.112450   1.296523   0.882439   0.000000   0.000000
   99  H  3  Z    1.205516  -0.796453   1.073565   0.000000   0.000000
  100  H  3 XX   -0.015119   0.160607  -0.009962   0.000000   0.000000
  101  H  3 YY   -0.033580  -0.109566  -0.245901   0.000000   0.000000
  102  H  3 ZZ    0.048699  -0.051041   0.255863   0.000000   0.000000
  103  H  3 XY    0.000000   0.000000   0.000000   0.249217   0.310607
  104  H  3 XZ    0.000000   0.000000   0.000000  -0.222330  -0.192876
  105  H  3 YZ   -0.094928   0.152527  -0.025906   0.000000   0.000000

     ----------------------------------------------------------------
     PROPERTY VALUES FOR THE ROHF  SELF-CONSISTENT FIELD WAVEFUNCTION
     ----------------------------------------------------------------

          ---------------------------------------
          MULLIKEN AND LOWDIN POPULATION ANALYSES
          ---------------------------------------

          MULLIKEN SPHERICAL HARMONIC POPULATIONS
       ATOM           S       P       D      F      G      H      I    TOTAL
    1 O             1.94    2.28    0.01   0.00   0.00   0.00   0.00    4.22
    2 H             0.33    0.05    0.01   0.00   0.00   0.00   0.00    0.39
    3 H             0.33    0.05    0.01   0.00   0.00   0.00   0.00    0.39

          MULLIKEN SPHERICAL HARMONIC POPULATIONS
       ATOM           S       P       D      F      G      H      I    TOTAL
    1 O             1.94    2.28    0.01   0.00   0.00   0.00   0.00    4.22
    2 H             0.33    0.05    0.01   0.00   0.00   0.00   0.00    0.39
    3 H             0.33    0.05    0.01   0.00   0.00   0.00   0.00    0.39

     ATOMIC SPIN POPULATION (ALPHA MINUS BETA)
       ATOM         MULL.POP.                    LOW.POP.
    1 O             0.000000                     0.000000
    2 H             0.000000                     0.000000
    3 H             0.000000                     0.000000

               ----- POPULATIONS IN EACH AO -----
                             MULLIKEN      LOWDIN
              1  O  1  S      1.94981     1.54800
              2  O  1  S      1.00146     0.50028
              3  O  1  S      0.23023     0.32728
              4  O  1  S      0.63521     0.17060
              5  O  1  X      0.50096     0.45242
              6  O  1  Y      0.34595     0.28952
              7  O  1  Z      0.41116     0.36098
              8  O  1  X      0.83684     0.33887
              9  O  1  Y      0.60316     0.26651
             10  O  1  Z      0.70588     0.30843
             11  O  1  X      0.51092     0.18394
             12  O  1  Y      0.25007     0.15819
             13  O  1  Z      0.34173     0.17804
             14  O  1 XX      0.00029     0.11125
             15  O  1 YY      0.00039     0.10875
             16  O  1 ZZ      0.00000     0.10804
             17  O  1 XY      0.00025     0.00000
             18  O  1 XZ      0.00213     0.00013
             19  O  1 YZ      0.00000     0.00129
             20  O  1 XX      0.00189     0.07746
             21  O  1 YY      0.00143     0.09167
             22  O  1 ZZ      0.00000     0.08509
             23  O  1 XY      0.00137     0.00000
             24  O  1 XZ      0.01068     0.00003
             25  O  1 YZ      0.00000     0.02100
             26  O  1 XXX     0.00010     0.21030
             27  O  1 YYY     0.00045     0.16038
             28  O  1 ZZZ     0.00001     0.18303
             29  O  1 XXY     0.00002     0.06151
             30  O  1 XXZ    -0.00001     0.07706
             31  O  1 YYX     0.00000     0.09318
             32  O  1 YYZ     0.00022     0.09966
             33  O  1 ZZX     0.00000     0.09313
             34  O  1 ZZY     0.00000     0.08347
             35  O  1 XYZ     0.00000    -0.00000
             36  O  1  S      0.05437     0.03805
             37  O  1  X      0.02655     0.03263
             38  O  1  Y      0.00647     0.02342
             39  O  1  Z      0.01124     0.03053
             40  O  1 XX      0.00048     0.00806
             41  O  1 YY     -0.00191     0.01671
             42  O  1 ZZ      0.00000     0.01188
             43  O  1 XY      0.00052     0.00000
             44  O  1 XZ     -0.00004     0.00000
             45  O  1 YZ      0.00000     0.01608
             46  O  1 XXX     0.00006     0.11227
             47  O  1 YYY    -0.00002     0.11879
             48  O  1 ZZZ     0.00001     0.11534
             49  O  1 XXY    -0.00011     0.03662
             50  O  1 XXZ     0.00028     0.04551
             51  O  1 YYX     0.00000     0.04895
             52  O  1 YYZ     0.00024     0.08302
             53  O  1 ZZX     0.00000     0.05002
             54  O  1 ZZY     0.00000     0.07521
             55  O  1 XYZ     0.00000     0.00000
             56  H  2  S      0.25048     0.16978
             57  H  2  S      0.40073     0.14793
             58  H  2  S      0.01175     0.04791
             59  H  2  X      0.00449     0.00723
             60  H  2  Y      0.00904     0.01619
             61  H  2  Z      0.00698     0.01420
             62  H  2  X      0.02923     0.06090
             63  H  2  Y      0.01163     0.06093
             64  H  2  Z      0.01399     0.07024
             65  H  2 XX      0.00123     0.04179
             66  H  2 YY      0.00090     0.08918
             67  H  2 ZZ      0.00181     0.07349
             68  H  2 XY      0.00102     0.01020
             69  H  2 XZ      0.00193     0.00584
             70  H  2 YZ      0.00000     0.01694
             71  H  2  S     -0.00122     0.00529
             72  H  2  X      0.01683     0.04896
             73  H  2  Y      0.00172     0.04629
             74  H  2  Z      0.00538     0.05163
             75  H  2 XX      0.00232     0.00878
             76  H  2 YY      0.00084     0.05602
             77  H  2 ZZ      0.00523     0.03681
             78  H  2 XY      0.00261     0.03716
             79  H  2 XZ      0.00072     0.02178
             80  H  2 YZ      0.00000     0.04822
             81  H  3  S      0.25048     0.16978
             82  H  3  S      0.40073     0.14793
             83  H  3  S      0.01175     0.04791
             84  H  3  X      0.00449     0.00723
             85  H  3  Y      0.00904     0.01619
             86  H  3  Z      0.00698     0.01420
             87  H  3  X      0.02923     0.06090
             88  H  3  Y      0.01163     0.06093
             89  H  3  Z      0.01399     0.07024
             90  H  3 XX      0.00123     0.04179
             91  H  3 YY      0.00090     0.08918
             92  H  3 ZZ      0.00181     0.07349
             93  H  3 XY      0.00102     0.01020
             94  H  3 XZ      0.00193     0.00584
             95  H  3 YZ      0.00000     0.01694
             96  H  3  S     -0.00122     0.00529
             97  H  3  X      0.01683     0.04896
             98  H  3  Y      0.00172     0.04629
             99  H  3  Z      0.00538     0.05163
            100  H  3 XX      0.00232     0.00878
            101  H  3 YY      0.00084     0.05602
            102  H  3 ZZ      0.00523     0.03681
            103  H  3 XY      0.00261     0.03716
            104  H  3 XZ      0.00072     0.02178
            105  H  3 YZ      0.00000     0.04822

          ----- MULLIKEN ATOMIC OVERLAP POPULATIONS -----
          (OFF-DIAGONAL ELEMENTS NEED TO BE MULTIPLIED BY 2)

             1           2           3

    1    7.8981305
    2    0.2713019   0.4897936
    3    0.2713019   0.0185373   0.4897936

          TOTAL MULLIKEN AND LOWDIN ATOMIC POPULATIONS
       ATOM         MULL.POP.    CHARGE          LOW.POP.     CHARGE
    1 O             8.440734   -0.440734         7.612608    0.387392
    2 H             0.779633    0.220367         1.193696   -0.193696
    3 H             0.779633    0.220367         1.193696   -0.193696

          MULLIKEN SPHERICAL HARMONIC POPULATIONS
       ATOM           S       P       D      F      G      H      I    TOTAL
    1 O             3.87    4.55    0.02   0.00   0.00   0.00   0.00    8.44
    2 H             0.66    0.10    0.02   0.00   0.00   0.00   0.00    0.78
    3 H             0.66    0.10    0.02   0.00   0.00   0.00   0.00    0.78

          -------------------------------
          BOND ORDER AND VALENCE ANALYSIS     BOND ORDER THRESHOLD=0.050
          -------------------------------

                   BOND                       BOND                       BOND
  ATOM PAIR DIST  ORDER      ATOM PAIR DIST  ORDER      ATOM PAIR DIST  ORDER
    1   2  0.959  0.999        1   3  0.959  0.999

                       TOTAL       BONDED        FREE
      ATOM            VALENCE     VALENCE     VALENCE
    1 O                 1.997       1.997      -0.000
    2 H                 1.033       1.033      -0.000
    3 H                 1.033       1.033       0.000

          ---------------------
          ELECTROSTATIC MOMENTS
          ---------------------

 POINT   1           X           Y           Z (BOHR)    CHARGE
                -0.000000    0.000000    0.930829       -0.00 (A.U.)
         DX          DY          DZ         /D/  (DEBYE)
    -0.000000    0.000000   -1.985277    1.985277
 ...... END OF PROPERTY EVALUATION ......
 STEP CPU TIME =     0.03 TOTAL CPU TIME =     2437.3 (   40.6 MIN)
 TOTAL WALL CLOCK TIME=     2468.9 SECONDS, CPU UTILIZATION IS  98.72%
  $VIB   
          IVIB=   0 IATOM=   0 ICOORD=   0 E=      -76.3336702071
  0.000000000E+00 0.000000000E+00 2.304563567E-06 0.000000000E+00-9.747907725E-07
 -1.152281784E-06 0.000000000E+00 9.747907725E-07-1.152281784E-06
 -9.463678832E-17 3.984561117E-12-1.985277500E+00
 ......END OF GEOMETRY SEARCH......
 STEP CPU TIME =     0.00 TOTAL CPU TIME =     2437.3 (   40.6 MIN)
 TOTAL WALL CLOCK TIME=     2468.9 SECONDS, CPU UTILIZATION IS  98.72%
             27011580  WORDS OF DYNAMIC MEMORY USED
 EXECUTION OF GAMESS TERMINATED NORMALLY Tue Mar  8 22:14:03 2016
 DDI: 263704 bytes (0.3 MB / 0 MWords) used by master data server.

 ----------------------------------------
 CPU timing information for all processes
 ========================================
 0: 2131.35 + 306.289 = 2437.324
 ----------------------------------------
 ddikick.x: exited gracefully.
----- accounting info -----
Files used on the master node Clevo were:
-rw-r--r-- 1 sagar sagar     392386 Mar  8 22:14 /tmp/H2O_ROHF_CCSD_augccpVTZ_geometry.dat
-rw-r--r-- 1 sagar sagar        186 Mar  8 21:32 /tmp/H2O_ROHF_CCSD_augccpVTZ_geometry.F05
-rw-r--r-- 1 sagar sagar   45184016 Mar  8 22:13 /tmp/H2O_ROHF_CCSD_augccpVTZ_geometry.F08
-rw-r--r-- 1 sagar sagar   26855880 Mar  8 22:13 /tmp/H2O_ROHF_CCSD_augccpVTZ_geometry.F09
-rw-r--r-- 1 sagar sagar    3501040 Mar  8 22:14 /tmp/H2O_ROHF_CCSD_augccpVTZ_geometry.F10
-rw-r--r-- 1 sagar sagar    4844160 Mar  8 22:14 /tmp/H2O_ROHF_CCSD_augccpVTZ_geometry.F70
-rw-r--r-- 1 sagar sagar   33909120 Mar  8 22:14 /tmp/H2O_ROHF_CCSD_augccpVTZ_geometry.F71
-rw-r--r-- 1 sagar sagar     605520 Mar  8 22:13 /tmp/H2O_ROHF_CCSD_augccpVTZ_geometry.F72
-rw-r--r-- 1 sagar sagar       2048 Mar  8 22:13 /tmp/H2O_ROHF_CCSD_augccpVTZ_geometry.F74
-rw-r--r-- 1 sagar sagar       2048 Mar  8 22:13 /tmp/H2O_ROHF_CCSD_augccpVTZ_geometry.F75
-rw-r--r-- 1 sagar sagar       2048 Mar  8 22:13 /tmp/H2O_ROHF_CCSD_augccpVTZ_geometry.F76
-rw-r--r-- 1 sagar sagar      44544 Mar  8 22:13 /tmp/H2O_ROHF_CCSD_augccpVTZ_geometry.F77
-rw-r--r-- 1 sagar sagar      44544 Mar  8 22:13 /tmp/H2O_ROHF_CCSD_augccpVTZ_geometry.F78
-rw-r--r-- 1 sagar sagar      44544 Mar  8 22:13 /tmp/H2O_ROHF_CCSD_augccpVTZ_geometry.F79
-rw-r--r-- 1 sagar sagar      44544 Mar  8 22:13 /tmp/H2O_ROHF_CCSD_augccpVTZ_geometry.F80
-rw-r--r-- 1 sagar sagar     968832 Mar  8 22:13 /tmp/H2O_ROHF_CCSD_augccpVTZ_geometry.F81
-rw-r--r-- 1 sagar sagar     968832 Mar  8 22:13 /tmp/H2O_ROHF_CCSD_augccpVTZ_geometry.F82
-rw-r--r-- 1 sagar sagar     968832 Mar  8 22:13 /tmp/H2O_ROHF_CCSD_augccpVTZ_geometry.F83
-rw-r--r-- 1 sagar sagar     968832 Mar  8 22:13 /tmp/H2O_ROHF_CCSD_augccpVTZ_geometry.F84
-rw-r--r-- 1 sagar sagar     968832 Mar  8 22:13 /tmp/H2O_ROHF_CCSD_augccpVTZ_geometry.F85
-rw-r--r-- 1 sagar sagar     968832 Mar  8 22:13 /tmp/H2O_ROHF_CCSD_augccpVTZ_geometry.F86
-rw-r--r-- 1 sagar sagar     968832 Mar  8 22:13 /tmp/H2O_ROHF_CCSD_augccpVTZ_geometry.F87
-rw-r--r-- 1 sagar sagar   21072096 Mar  8 22:13 /tmp/H2O_ROHF_CCSD_augccpVTZ_geometry.F88
-rw-r--r-- 1 sagar sagar   21072096 Mar  8 22:13 /tmp/H2O_ROHF_CCSD_augccpVTZ_geometry.F89
-rw-r--r-- 1 sagar sagar   21072096 Mar  8 22:13 /tmp/H2O_ROHF_CCSD_augccpVTZ_geometry.F90
-rw-r--r-- 1 sagar sagar   21072096 Mar  8 22:13 /tmp/H2O_ROHF_CCSD_augccpVTZ_geometry.F91
-rw-r--r-- 1 sagar sagar 1374954264 Mar  8 22:13 /tmp/H2O_ROHF_CCSD_augccpVTZ_geometry.F92
-rw-r--r-- 1 sagar sagar   16470144 Mar  8 22:14 /tmp/H2O_ROHF_CCSD_augccpVTZ_geometry.F93
-rw-r--r-- 1 sagar sagar  126432576 Mar  8 22:14 /tmp/H2O_ROHF_CCSD_augccpVTZ_geometry.F94
Tue Mar  8 22:14:06 WET 2016
0.106u 0.201s 41:12.22 0.0%	0+0k 0+24io 0pf+0w
