----- GAMESS execution script 'rungms' -----
This job is running on host Clevo
under operating system Linux at Tue Mar 8 19:08:11 WET 2016
Available scratch disk space (Kbyte units) at beginning of the job is
Filesystem                                             1K-blocks     Used Available Use% Mounted on
/dev/disk/by-uuid/c2905ecd-da6a-4deb-abcc-9980c215dfc9  34319120 18843252  13709468  58% /
GAMESS temporary binary files will be written to /tmp
GAMESS supplementary output files will be written to .
Copying input file H2O_ion_ROHF_augccpVTZ_geometry.inp to your run's scratch directory...

 Distributed Data Interface kickoff program.
 Initiating 1 compute processes on 1 nodes to run the following command:
 /home/sagar/gamess/gamess.01.x H2O_ion_ROHF_augccpVTZ_geometry 

          ******************************************************
          *         GAMESS VERSION =  5 DEC 2014 (R1)          *
          *             FROM IOWA STATE UNIVERSITY             *
          * M.W.SCHMIDT, K.K.BALDRIDGE, J.A.BOATZ, S.T.ELBERT, *
          *   M.S.GORDON, J.H.JENSEN, S.KOSEKI, N.MATSUNAGA,   *
          *          K.A.NGUYEN, S.J.SU, T.L.WINDUS,           *
          *       TOGETHER WITH M.DUPUIS, J.A.MONTGOMERY       *
          *         J.COMPUT.CHEM.  14, 1347-1363(1993)        *
          **************** 64 BIT LINUX VERSION ****************

  SINCE 1993, STUDENTS AND POSTDOCS WORKING AT IOWA STATE UNIVERSITY
  AND ALSO IN THEIR VARIOUS JOBS AFTER LEAVING ISU HAVE MADE IMPORTANT
  CONTRIBUTIONS TO THE CODE:
     IVANA ADAMOVIC, CHRISTINE AIKENS, YURI ALEXEEV, POOJA ARORA,
     ANDREY ASADCHEV, ROB BELL, PRADIPTA BANDYOPADHYAY, JONATHAN BENTZ,
     BRETT BODE, KURT BRORSEN, CALEB CARLIN, GALINA CHABAN, WEI CHEN,
     CHEOL HO CHOI, PAUL DAY, ALBERT DEFUSCO, NUWAN DESILVA, TIM DUDLEY,
     DMITRI FEDOROV, GRAHAM FLETCHER, MARK FREITAG, KURT GLAESEMANN,
     DAN KEMP, GRANT MERRILL, NORIYUKI MINEZAWA, JONATHAN MULLIN,
     TAKESHI NAGATA, SEAN NEDD, HEATHER NETZLOFF, BOSILJKA NJEGIC, RYAN OLSON,
     MIKE PAK, SPENCER PRUITT, LUKE ROSKOP, JIM SHOEMAKER, LYUDMILA SLIPCHENKO,
     TONY SMITH, SAROM SOK, JIE SONG, TETSUYA TAKETSUGU, SIMON WEBB,
     PENG XU, SOOHAENG YOO, FEDERICO ZAHARIEV

  ADDITIONAL CODE HAS BEEN PROVIDED BY COLLABORATORS IN OTHER GROUPS:
     IOWA STATE UNIVERSITY:
          JOE IVANIC, AARON WEST, LAIMUTIS BYTAUTAS, KLAUS RUEDENBERG
     UNIVERSITY OF TOKYO: KIMIHIKO HIRAO, TAKAHITO NAKAJIMA,
          TAKAO TSUNEDA, MUNEAKI KAMIYA, SUSUMU YANAGISAWA,
          KIYOSHI YAGI, MAHITO CHIBA, SEIKEN TOKURA, NAOAKI KAWAKAMI
     UNIVERSITY OF AARHUS: FRANK JENSEN
     UNIVERSITY OF IOWA: VISVALDAS KAIRYS, HUI LI
     NATIONAL INST. OF STANDARDS AND TECHNOLOGY: WALT STEVENS, DAVID GARMER
     UNIVERSITY OF PISA: BENEDETTA MENNUCCI, JACOPO TOMASI
     UNIVERSITY OF MEMPHIS: HENRY KURTZ, PRAKASHAN KORAMBATH
     UNIVERSITY OF ALBERTA: TOBY ZENG, MARIUSZ KLOBUKOWSKI
     UNIVERSITY OF NEW ENGLAND: MARK SPACKMAN
     MIE UNIVERSITY: HIROAKI UMEDA
     NAT. INST. OF ADVANCED INDUSTRIAL SCIENCE AND TECHNOLOGY: KAZUO KITAURA
     MICHIGAN STATE UNIVERSITY:
          KAROL KOWALSKI, MARTA WLOCH, JEFFREY GOUR, JESSE LUTZ,
          WEI LI, PIOTR PIECUCH
     UNIVERSITY OF SILESIA: MONIKA MUSIAL, STANISLAW KUCHARSKI
     FACULTES UNIVERSITAIRES NOTRE-DAME DE LA PAIX:
          OLIVIER QUINET, BENOIT CHAMPAGNE
     UNIVERSITY OF CALIFORNIA - SANTA BARBARA: BERNARD KIRTMAN
     INSTITUTE FOR MOLECULAR SCIENCE:
          KAZUYA ISHIMURA, MICHIO KATOUDA, AND SHIGERU NAGASE
     UNIVERSITY OF NOTRE DAME: ANNA POMOGAEVA, DAN CHIPMAN
     KYUSHU UNIVERSITY:
          HARUYUKI NAKANO,
          FENG LONG GU, JACEK KORCHOWIEC, MARCIN MAKOWSKI, AND YURIKO AOKI,
          HIROTOSHI MORI AND EISAKU MIYOSHI
     PENNSYLVANIA STATE UNIVERSITY:
          TZVETELIN IORDANOV, CHET SWALINA, JONATHAN SKONE,
          SHARON HAMMES-SCHIFFER
     WASEDA UNIVERSITY:
          MASATO KOBAYASHI, TOMOKO AKAMA, TSUGUKI TOUMA,
          TAKESHI YOSHIKAWA, YASUHIRO IKABATA, HIROMI NAKAI
     NANJING UNIVERSITY: SHUHUA LI
     UNIVERSITY OF NEBRASKA:
          PEIFENG SU, DEJUN SI, NANDUN THELLAMUREGE, YALI WANG, HUI LI
     UNIVERSITY OF ZURICH: ROBERTO PEVERATI, KIM BALDRIDGE
     N. COPERNICUS UNIVERSITY AND JACKSON STATE UNIVERSITY:
          MARIA BARYSZ
     UNIVERSITY OF COPENHAGEN: CASPER STEINMANN
     TOKYO INSTITUTE OF TECHNOLOGY: HIROYA NAKATA
     NAGOYA UNIVERSITY: YOSHIO NISHIMOTO, STEPHAN IRLE

 EXECUTION OF GAMESS BEGUN Tue Mar  8 19:08:11 2016

            ECHO OF THE FIRST FEW INPUT CARDS -
 INPUT CARD> $CONTRL SCFTYP=ROHF RUNTYP=OPTIMIZE ISPHER=1 ICHARG=1 MULT=2 $END              
 INPUT CARD> $STATPT OPTTOL=1E-12 NSTEP=1000 $END                                           
 INPUT CARD> $BASIS GBASIS=ACCT $END                                                        
 INPUT CARD> $DATA                                                                          
 INPUT CARD>H2O                                                                             
 INPUT CARD>C1                                                                              
 INPUT CARD> H 1 0.0 -1.0 0.0                                                               
 INPUT CARD> H 1 0.0 1.0 0.0                                                                
 INPUT CARD> O 8 0.0 0.0 0.5                                                                
 INPUT CARD> $END                                                                           
    1000000 WORDS OF MEMORY AVAILABLE

     BASIS OPTIONS
     -------------
     GBASIS=ACCT         IGAUSS=       0      POLAR=NONE    
     NDFUNC=       0     NFFUNC=       0     DIFFSP=       F
     NPFUNC=       0      DIFFS=       F     BASNAM=        


     RUN TITLE
     ---------
 H2O                                                                             

 THE POINT GROUP OF THE MOLECULE IS C1      
 THE ORDER OF THE PRINCIPAL AXIS IS     0

 ATOM      ATOMIC                      COORDINATES (BOHR)
           CHARGE         X                   Y                   Z
 H           1.0     0.0000000000       -1.8897259877        0.0000000000
 H           1.0     0.0000000000        1.8897259877        0.0000000000
 O           8.0     0.0000000000        0.0000000000        0.9448629939

          INTERNUCLEAR DISTANCES (ANGS.)
          ------------------------------

                1 H          2 H          3 O     

   1 H       0.0000000    2.0000000 *  1.1180340 *
   2 H       2.0000000 *  0.0000000    1.1180340 *
   3 O       1.1180340 *  1.1180340 *  0.0000000  

  * ... LESS THAN  3.000


     ATOMIC BASIS SET
     ----------------
 THE CONTRACTED PRIMITIVE FUNCTIONS HAVE BEEN UNNORMALIZED
 THE CONTRACTED BASIS FUNCTIONS ARE NOW NORMALIZED TO UNITY

  SHELL TYPE  PRIMITIVE        EXPONENT          CONTRACTION COEFFICIENT(S)

 H         

      1   S       1            33.8700000    0.025494863235
      1   S       2             5.0950000    0.190362765893
      1   S       3             1.1590000    0.852162022245

      2   S       4             0.3258000    1.000000000000

      3   S       5             0.1027000    1.000000000000

      4   P       6             1.4070000    1.000000000000

      5   P       7             0.3880000    1.000000000000

      6   D       8             1.0570000    1.000000000000

      7   S       9             0.0252600    1.000000000000

      8   P      10             0.1020000    1.000000000000

      9   D      11             0.2470000    1.000000000000

 H         

     10   S      12            33.8700000    0.025494863235
     10   S      13             5.0950000    0.190362765893
     10   S      14             1.1590000    0.852162022245

     11   S      15             0.3258000    1.000000000000

     12   S      16             0.1027000    1.000000000000

     13   P      17             1.4070000    1.000000000000

     14   P      18             0.3880000    1.000000000000

     15   D      19             1.0570000    1.000000000000

     16   S      20             0.0252600    1.000000000000

     17   P      21             0.1020000    1.000000000000

     18   D      22             0.2470000    1.000000000000

 O         

     19   S      23         15330.0000000    0.000520198307
     19   S      24          2299.0000000    0.004023344781
     19   S      25           522.4000000    0.020729083329
     19   S      26           147.3000000    0.081082327080
     19   S      27            47.5500000    0.236226352118
     19   S      28            16.7600000    0.443518209420
     19   S      29             6.2070000    0.358670588689
     19   S      30             0.6882000   -0.008349797237

     20   S      31         15330.0000000   -0.000197236012
     20   S      32          2299.0000000   -0.001535010700
     20   S      33           522.4000000   -0.007951183914
     20   S      34           147.3000000   -0.032113452892
     20   S      35            47.5500000   -0.100269643049
     20   S      36            16.7600000   -0.234047111838
     20   S      37             6.2070000   -0.301410927756
     20   S      38             0.6882000    1.034919649508

     21   S      39             1.7520000    1.000000000000

     22   S      40             0.2384000    1.000000000000

     23   P      41            34.4600000    0.041163489568
     23   P      42             7.7490000    0.257762835858
     23   P      43             2.2800000    0.802419274427

     24   P      44             0.7156000    1.000000000000

     25   P      45             0.2140000    1.000000000000

     26   D      46             2.3140000    1.000000000000

     27   D      47             0.6450000    1.000000000000

     28   F      48             1.4280000    1.000000000000

     29   S      49             0.0737600    1.000000000000

     30   P      50             0.0597400    1.000000000000

     31   D      51             0.2140000    1.000000000000

     32   F      52             0.5000000    1.000000000000

 TOTAL NUMBER OF BASIS SET SHELLS             =   32
 NUMBER OF CARTESIAN GAUSSIAN BASIS FUNCTIONS =  105
 NOTE: THIS RUN WILL RESTRICT THE MO VARIATION SPACE TO SPHERICAL HARMONICS.
 THE NUMBER OF ORBITALS KEPT IN THE VARIATIONAL SPACE WILL BE PRINTED LATER.
 NUMBER OF ELECTRONS                          =    9
 CHARGE OF MOLECULE                           =    1
 SPIN MULTIPLICITY                            =    2
 NUMBER OF OCCUPIED ORBITALS (ALPHA)          =    5
 NUMBER OF OCCUPIED ORBITALS (BETA )          =    4
 TOTAL NUMBER OF ATOMS                        =    3
 THE NUCLEAR REPULSION ENERGY IS        7.8375569539

     $CONTRL OPTIONS
     ---------------
 SCFTYP=ROHF         RUNTYP=OPTIMIZE     EXETYP=RUN     
 MPLEVL=       0     CITYP =NONE         CCTYP =NONE         VBTYP =NONE    
 DFTTYP=NONE         TDDFT =NONE    
 MULT  =       2     ICHARG=       1     NZVAR =       0     COORD =UNIQUE  
 PP    =NONE         RELWFN=NONE         LOCAL =NONE         NUMGRD=       F
 ISPHER=       1     NOSYM =       0     MAXIT =      30     UNITS =ANGS    
 PLTORB=       F     MOLPLT=       F     AIMPAC=       F     FRIEND=        
 NPRINT=       7     IREST =       0     GEOM  =INPUT   
 NORMF =       0     NORMP =       0     ITOL  =      20     ICUT  =       9
 INTTYP=BEST         GRDTYP=BEST         QMTTOL= 1.0E-06

     $SYSTEM OPTIONS
     ---------------
  REPLICATED MEMORY=     1000000 WORDS (ON EVERY NODE).
 DISTRIBUTED MEMDDI=           0 MILLION WORDS IN AGGREGATE,
 MEMDDI DISTRIBUTED OVER   1 PROCESSORS IS           0 WORDS/PROCESSOR.
 TOTAL MEMORY REQUESTED ON EACH PROCESSOR=     1000000 WORDS.
 TIMLIM=      525600.00 MINUTES, OR     365.0 DAYS.
 PARALL= F  BALTYP=  DLB     KDIAG=    0  COREFL= F
 MXSEQ2=     300 MXSEQ3=     150  mem10=         0

          ----------------
          PROPERTIES INPUT
          ----------------

     MOMENTS            FIELD           POTENTIAL          DENSITY
 IEMOM =       1   IEFLD =       0   IEPOT =       0   IEDEN =       0
 WHERE =COMASS     WHERE =NUCLEI     WHERE =NUCLEI     WHERE =NUCLEI  
 OUTPUT=BOTH       OUTPUT=BOTH       OUTPUT=BOTH       OUTPUT=BOTH    
 IEMINT=       0   IEFINT=       0                     IEDINT=       0
                                                       MORB  =       0
          EXTRAPOLATION IN EFFECT
          SOSCF IN EFFECT
 ORBITAL PRINTING OPTION: NPREO=     1   105     2     1

     -------------------------------
     INTEGRAL TRANSFORMATION OPTIONS
     -------------------------------
     NWORD  =            0
     CUTOFF = 1.0E-09     MPTRAN =       0
     DIRTRF =       F     AOINTS =DUP     

          ----------------------
          INTEGRAL INPUT OPTIONS
          ----------------------
 NOPK  =       1 NORDER=       0 SCHWRZ=       F

     ------------------------------------------
     THE POINT GROUP IS C1 , NAXIS= 0, ORDER= 1
     ------------------------------------------

 -- VARIATIONAL SPACE WILL BE RESTRICTED TO PURE SPHERICAL HARMONICS ONLY --
 AFTER EXCLUDING CONTAMINANT COMBINATIONS FROM THE CARTESIAN GAUSSIAN BASIS
 SET, THE NUMBER OF SPHERICAL HARMONICS KEPT IN THE VARIATION SPACE IS   92

     DIMENSIONS OF THE SYMMETRY SUBSPACES ARE
 A   =   92

 ..... DONE SETTING UP THE RUN .....
 STEP CPU TIME =     0.00 TOTAL CPU TIME =        0.0 (    0.0 MIN)
 TOTAL WALL CLOCK TIME=        0.0 SECONDS, CPU UTILIZATION IS   0.00%


          -----------------------------
          STATIONARY POINT LOCATION RUN
          -----------------------------

 OBTAINING INITIAL HESSIAN, HESS=GUESS   
 CARTESIAN COORDINATE OPTIMIZATION USING BADGER'S RULE FORCE CONSTANT GUESS

          PARAMETERS CONTROLLING GEOMETRY SEARCH ARE
          METHOD =QA                  UPHESS =BFGS    
          NNEG   =         0          NFRZ   =         0
          NSTEP  =      1000          IFOLOW =         1
          HESS   =GUESS               RESTAR =         F
          IHREP  =         0          HSSEND =         F
          NPRT   =         0          NPUN   =         0
          OPTTOL = 1.000E-12          RMIN   = 1.500E-03
          RMAX   = 1.000E-01          RLIM   = 7.000E-02
          DXMAX  = 3.000E-01          PURIFY =         F
          MOVIE  =         F          TRUPD  =         T
          TRMAX  = 5.000E-01          TRMIN  = 5.000E-02
          ITBMAT =         5          STPT   =         F
          STSTEP = 1.000E-02          PROJCT=          T

 BEGINNING GEOMETRY SEARCH POINT NSERCH=   0 ...

 COORDINATES OF ALL ATOMS ARE (ANGS)
   ATOM   CHARGE       X              Y              Z
 ------------------------------------------------------------
 H           1.0   0.0000000000  -1.0000000000   0.0000000000
 H           1.0   0.0000000000   1.0000000000   0.0000000000
 O           8.0   0.0000000000   0.0000000000   0.5000000000

          ********************
          1 ELECTRON INTEGRALS
          ********************
 ...... END OF ONE-ELECTRON INTEGRALS ......
 STEP CPU TIME =     0.01 TOTAL CPU TIME =        0.0 (    0.0 MIN)
 TOTAL WALL CLOCK TIME=        0.0 SECONDS, CPU UTILIZATION IS  50.00%

          -------------
          GUESS OPTIONS
          -------------
          GUESS =HUCKEL            NORB  =       0          NORDER=       0
          MIX   =       F          PRTMO =       F          PUNMO =       F
          TOLZ  = 1.0E-08          TOLE  = 1.0E-05
          SYMDEN=       F          PURIFY=       F

 INITIAL GUESS ORBITALS GENERATED BY HUCKEL   ROUTINE.
 HUCKEL GUESS REQUIRES     81459 WORDS.

 STATISTICS FOR GENERATION OF SYMMETRY ORBITAL -Q- MATRIX
 NUMBER OF CARTESIAN ATOMIC ORBITALS=        105
 NUMBER OF SPHERICAL CONTAMINANTS DROPPED=    13
 NUMBER OF LINEARLY DEPENDENT MOS DROPPED=     0
 TOTAL NUMBER OF MOS IN VARIATION SPACE=      92

 SYMMETRIES FOR INITIAL GUESS ORBITALS FOLLOW.  ALPHA SET(S).
     5 ORBITALS ARE OCCUPIED (    1 CORE ORBITALS).
     2=A        3=A        4=A        5=A        6=A        7=A        8=A   
     9=A       10=A       11=A       12=A       13=A       14=A       15=A   

 SYMMETRIES FOR INITIAL GUESS ORBITALS FOLLOW.   BETA SET(S).
     4 ORBITALS ARE OCCUPIED (    1 CORE ORBITALS).
     2=A        3=A        4=A        5=A        6=A        7=A        8=A   
     9=A       10=A       11=A       12=A       13=A       14=A   
 ...... END OF INITIAL ORBITAL SELECTION ......
 STEP CPU TIME =     0.01 TOTAL CPU TIME =        0.0 (    0.0 MIN)
 TOTAL WALL CLOCK TIME=        0.0 SECONDS, CPU UTILIZATION IS  66.67%

                    ----------------------
                    AO INTEGRAL TECHNOLOGY
                    ----------------------
     S,P,L SHELL ROTATED AXIS INTEGRALS, REPROGRAMMED BY
        KAZUYA ISHIMURA (IMS) AND JOSE SIERRA (SYNSTAR).
     S,P,D,L SHELL ROTATED AXIS INTEGRALS PROGRAMMED BY
        KAZUYA ISHIMURA (INSTITUTE FOR MOLECULAR SCIENCE).
     S,P,D,F,G SHELL TO TOTAL QUARTET ANGULAR MOMENTUM SUM 5,
        ERIC PROGRAM BY GRAHAM FLETCHER (ELORET AND NASA ADVANCED
        SUPERCOMPUTING DIVISION, AMES RESEARCH CENTER).
     S,P,D,F,G,L SHELL GENERAL RYS QUADRATURE PROGRAMMED BY
        MICHEL DUPUIS (PACIFIC NORTHWEST NATIONAL LABORATORY).

          --------------------
          2 ELECTRON INTEGRALS
          --------------------

 THE -PK- OPTION IS OFF, THE INTEGRALS ARE NOT IN SUPERMATRIX FORM.
 STORING   15000 INTEGRALS/RECORD ON DISK, USING 12 BYTES/INTEGRAL.
 TWO ELECTRON INTEGRAL EVALUATION REQUIRES   99628 WORDS OF MEMORY.
 II,JST,KST,LST =  1  1  1  1 NREC =         1 INTLOC =    1
 II,JST,KST,LST =  2  1  1  1 NREC =         1 INTLOC =    2
 II,JST,KST,LST =  3  1  1  1 NREC =         1 INTLOC =    7
 II,JST,KST,LST =  4  1  1  1 NREC =         1 INTLOC =   22
 II,JST,KST,LST =  5  1  1  1 NREC =         1 INTLOC =   67
 II,JST,KST,LST =  6  1  1  1 NREC =         1 INTLOC =  214
 II,JST,KST,LST =  7  1  1  1 NREC =         1 INTLOC = 1189
 II,JST,KST,LST =  8  1  1  1 NREC =         1 INTLOC = 1589
 II,JST,KST,LST =  9  1  1  1 NREC =         1 INTLOC = 2864
 II,JST,KST,LST = 10  1  1  1 NREC =         1 INTLOC = 7967
 II,JST,KST,LST = 11  1  1  1 NREC =         1 INTLOC =10693
 II,JST,KST,LST = 12  1  1  1 NREC =         1 INTLOC =13822
 II,JST,KST,LST = 13  1  1  1 NREC =         2 INTLOC = 2399
 II,JST,KST,LST = 14  1  1  1 NREC =         2 INTLOC =13449
 II,JST,KST,LST = 15  1  1  1 NREC =         3 INTLOC =13008
 II,JST,KST,LST = 16  1  1  1 NREC =         6 INTLOC =10317
 II,JST,KST,LST = 17  1  1  1 NREC =         7 INTLOC = 5621
 II,JST,KST,LST = 18  1  1  1 NREC =         9 INTLOC = 6483
 II,JST,KST,LST = 19  1  1  1 NREC =        14 INTLOC =13740
 II,JST,KST,LST = 20  1  1  1 NREC =        17 INTLOC = 5131
 II,JST,KST,LST = 21  1  1  1 NREC =        19 INTLOC =13933
 II,JST,KST,LST = 22  1  1  1 NREC =        22 INTLOC =10260
 II,JST,KST,LST = 23  1  1  1 NREC =        25 INTLOC = 9229
 II,JST,KST,LST = 24  1  1  1 NREC =        34 INTLOC =11102
 II,JST,KST,LST = 25  1  1  1 NREC =        45 INTLOC = 5521
 II,JST,KST,LST = 26  1  1  1 NREC =        57 INTLOC = 9664
 II,JST,KST,LST = 27  1  1  1 NREC =        87 INTLOC =10804
 II,JST,KST,LST = 28  1  1  1 NREC =       126 INTLOC = 2553
 II,JST,KST,LST = 29  1  1  1 NREC =       211 INTLOC = 1310
 II,JST,KST,LST = 30  1  1  1 NREC =       221 INTLOC =13287
 II,JST,KST,LST = 31  1  1  1 NREC =       254 INTLOC =10804
 II,JST,KST,LST = 32  1  1  1 NREC =       329 INTLOC =14823
 TOTAL NUMBER OF NONZERO TWO-ELECTRON INTEGRALS =             7265215
        485 INTEGRAL RECORDS WERE STORED ON DISK FILE  8.
  ...... END OF TWO-ELECTRON INTEGRALS .....
 STEP CPU TIME =     0.49 TOTAL CPU TIME =        0.5 (    0.0 MIN)
 TOTAL WALL CLOCK TIME=        0.5 SECONDS, CPU UTILIZATION IS  98.08%

          ---------------------------
                 ROHF SCF CALCULATION
          ---------------------------

     NUCLEAR ENERGY =         7.8375569539
     MAXIT = 30     NPUNCH=  2     MULT=  2
     EXTRAP=T  DAMP=F  SHIFT=F  RSTRCT=F  DIIS=F  SOSCF=T
     DENSITY MATRIX CONV=  1.00E-05
     ROHF CANONICALIZATION PARAMETERS
             C-C     O-O     V-V
     ALPHA -0.5000  0.5000  1.5000
     BETA   1.5000  0.5000 -0.5000
     SOSCF WILL OPTIMIZE     439 ORBITAL ROTATION ANGLES. SOGTOL= 2.500E-01
     MEMORY REQUIRED FOR UHF/ROHF ITERS=    133343 WORDS.

 ITER EX      TOTAL ENERGY        E CHANGE  DENSITY CHANGE    ORB. GRAD 
   1  0      -75.2635246829   -75.2635246829   0.417452140   0.000000000
          ---------------START SECOND ORDER SCF---------------
   2  1      -75.5708016961    -0.3072770132   0.108457098   0.109964181
   3  2      -75.6078471115    -0.0370454155   0.049390415   0.064180482
   4  3      -75.6235016255    -0.0156545140   0.007189990   0.005211218
   5  4      -75.6238291076    -0.0003274821   0.003949473   0.002345735
   6  5      -75.6238940078    -0.0000649002   0.000461214   0.000337203
   7  6      -75.6238954078    -0.0000013999   0.000233249   0.000111562
   8  7      -75.6238955762    -0.0000001685   0.000027009   0.000023946
   9  8      -75.6238955814    -0.0000000051   0.000012677   0.000009038
  10  9      -75.6238955822    -0.0000000008   0.000000686   0.000000628
  11 10      -75.6238955822    -0.0000000000   0.000000194   0.000000161

          -----------------
          DENSITY CONVERGED
          -----------------
     TIME TO FORM FOCK OPERATORS=       1.5 SECONDS (       0.1 SEC/ITER)
     TIME TO SOLVE SCF EQUATIONS=       0.0 SECONDS (       0.0 SEC/ITER)

 FINAL ROHF ENERGY IS      -75.6238955822 AFTER  11 ITERATIONS

          --------------------
          SPIN SZ   =    0.500
          S-SQUARED =    0.750
          --------------------

          ------------
          EIGENVECTORS
          ------------

                      1          2          3          4          5
                  -21.0363    -1.5753    -1.0793    -0.9367    -0.6492
                     A          A          A          A          A   
    1  H  1  S    0.000042   0.061492  -0.119513  -0.058767  -0.000000
    2  H  1  S    0.002174   0.049875  -0.176177  -0.135103  -0.000000
    3  H  1  S    0.000218  -0.024633   0.003491  -0.028841  -0.000000
    4  H  1  X   -0.000000  -0.000000   0.000000  -0.000000   0.006738
    5  H  1  Y    0.000297   0.008949  -0.009295  -0.006943  -0.000000
    6  H  1  Z    0.000171   0.003893  -0.007013   0.003274  -0.000000
    7  H  1  X   -0.000000  -0.000000   0.000000  -0.000000   0.017224
    8  H  1  Y    0.001515   0.012941  -0.028308  -0.038592  -0.000000
    9  H  1  Z    0.000641   0.003429  -0.021754  -0.000330  -0.000000
   10  H  1 XX   -0.000163  -0.001282   0.001456   0.001105  -0.000000
   11  H  1 YY    0.000238   0.001935  -0.001002  -0.004361  -0.000000
   12  H  1 ZZ   -0.000074  -0.000653  -0.000454   0.003256  -0.000000
   13  H  1 XY   -0.000000  -0.000000   0.000000  -0.000000   0.003906
   14  H  1 XZ   -0.000000  -0.000000   0.000000  -0.000000   0.001915
   15  H  1 YZ    0.000229   0.001220  -0.003529   0.000330  -0.000000
   16  H  1  S    0.000045  -0.001294   0.005055   0.000651  -0.000000
   17  H  1  X   -0.000000  -0.000000   0.000000  -0.000000  -0.004322
   18  H  1  Y    0.000216  -0.005738   0.004863  -0.006752  -0.000000
   19  H  1  Z    0.000032  -0.003685   0.003444  -0.003646  -0.000000
   20  H  1 XX   -0.000257  -0.001849   0.002045   0.003941  -0.000000
   21  H  1 YY    0.000406   0.003350  -0.001719  -0.008166  -0.000000
   22  H  1 ZZ   -0.000149  -0.001502  -0.000326   0.004225  -0.000000
   23  H  1 XY   -0.000000  -0.000000   0.000000  -0.000000   0.003543
   24  H  1 XZ   -0.000000  -0.000000   0.000000  -0.000000   0.002422
   25  H  1 YZ    0.000341   0.002236  -0.006131  -0.000723  -0.000000
   26  H  2  S    0.000042   0.061492   0.119513  -0.058767  -0.000000
   27  H  2  S    0.002174   0.049875   0.176177  -0.135103  -0.000000
   28  H  2  S    0.000218  -0.024633  -0.003491  -0.028841  -0.000000
   29  H  2  X   -0.000000  -0.000000   0.000000  -0.000000   0.006738
   30  H  2  Y   -0.000297  -0.008949  -0.009295   0.006943  -0.000000
   31  H  2  Z    0.000171   0.003893   0.007013   0.003274  -0.000000
   32  H  2  X   -0.000000  -0.000000   0.000000  -0.000000   0.017224
   33  H  2  Y   -0.001515  -0.012941  -0.028308   0.038592  -0.000000
   34  H  2  Z    0.000641   0.003429   0.021754  -0.000330  -0.000000
   35  H  2 XX   -0.000163  -0.001282  -0.001456   0.001105  -0.000000
   36  H  2 YY    0.000238   0.001935   0.001002  -0.004361  -0.000000
   37  H  2 ZZ   -0.000074  -0.000653   0.000454   0.003256  -0.000000
   38  H  2 XY   -0.000000  -0.000000   0.000000  -0.000000  -0.003906
   39  H  2 XZ   -0.000000  -0.000000   0.000000  -0.000000   0.001915
   40  H  2 YZ   -0.000229  -0.001220  -0.003529  -0.000330  -0.000000
   41  H  2  S    0.000045  -0.001294  -0.005055   0.000651  -0.000000
   42  H  2  X   -0.000000  -0.000000   0.000000  -0.000000  -0.004322
   43  H  2  Y   -0.000216   0.005738   0.004863   0.006752  -0.000000
   44  H  2  Z    0.000032  -0.003685  -0.003444  -0.003646  -0.000000
   45  H  2 XX   -0.000257  -0.001849  -0.002045   0.003941  -0.000000
   46  H  2 YY    0.000406   0.003350   0.001719  -0.008166  -0.000000
   47  H  2 ZZ   -0.000149  -0.001502   0.000326   0.004225  -0.000000
   48  H  2 XY   -0.000000  -0.000000   0.000000  -0.000000  -0.003543
   49  H  2 XZ   -0.000000  -0.000000   0.000000  -0.000000   0.002422
   50  H  2 YZ   -0.000341  -0.002236  -0.006131   0.000723  -0.000000
   51  O  3  S    0.975550   0.000178  -0.000000   0.004109  -0.000000
   52  O  3  S   -0.002672   0.545161  -0.000000   0.143248  -0.000000
   53  O  3  S    0.043128   0.146304  -0.000000   0.043672  -0.000000
   54  O  3  S   -0.002076   0.320987   0.000000   0.229206  -0.000000
   55  O  3  X   -0.000000  -0.000000   0.000000  -0.000000   0.397348
   56  O  3  Y   -0.000000   0.000000   0.300283  -0.000000  -0.000000
   57  O  3  Z   -0.001705  -0.036738   0.000000   0.355567  -0.000000
   58  O  3  X   -0.000000  -0.000000   0.000000  -0.000000   0.513779
   59  O  3  Y   -0.000000   0.000000   0.385502  -0.000000  -0.000000
   60  O  3  Z    0.001627  -0.056004   0.000000   0.448627  -0.000000
   61  O  3  X   -0.000000  -0.000000   0.000000  -0.000000   0.270893
   62  O  3  Y   -0.000000   0.000000   0.187027   0.000000  -0.000000
   63  O  3  Z    0.000616  -0.033376  -0.000000   0.243382  -0.000000
   64  O  3 XX   -0.000184  -0.003073   0.000000   0.005071  -0.000000
   65  O  3 YY    0.000111   0.003175   0.000000  -0.001436  -0.000000
   66  O  3 ZZ    0.000073  -0.000102   0.000000  -0.003635  -0.000000
   67  O  3 XY   -0.000000  -0.000000   0.000000  -0.000000  -0.000000
   68  O  3 XZ   -0.000000  -0.000000   0.000000  -0.000000  -0.004661
   69  O  3 YZ   -0.000000  -0.000000  -0.009593  -0.000000  -0.000000
   70  O  3 XX    0.000620  -0.011564  -0.000000   0.006457  -0.000000
   71  O  3 YY   -0.001034   0.013607   0.000000   0.007931  -0.000000
   72  O  3 ZZ    0.000413  -0.002043  -0.000000  -0.014388  -0.000000
   73  O  3 XY   -0.000000  -0.000000   0.000000  -0.000000  -0.000000
   74  O  3 XZ   -0.000000  -0.000000   0.000000  -0.000000  -0.013329
   75  O  3 YZ   -0.000000  -0.000000  -0.026436  -0.000000  -0.000000
   76  O  3 XXX  -0.000000  -0.000000   0.000000  -0.000000   0.003972
   77  O  3 YYY  -0.000000  -0.000000   0.003028  -0.000000  -0.000000
   78  O  3 ZZZ  -0.000091   0.001416   0.000000  -0.002832  -0.000000
   79  O  3 XXY  -0.000000  -0.000000  -0.002016  -0.000000  -0.000000
   80  O  3 XXZ  -0.000052   0.000740   0.000000   0.000471  -0.000000
   81  O  3 YYX  -0.000000  -0.000000   0.000000  -0.000000  -0.000609
   82  O  3 YYZ   0.000175  -0.002640   0.000000   0.003328  -0.000000
   83  O  3 ZZX  -0.000000  -0.000000   0.000000  -0.000000  -0.004720
   84  O  3 ZZY  -0.000000  -0.000000  -0.002047  -0.000000  -0.000000
   85  O  3 XYZ  -0.000000  -0.000000   0.000000  -0.000000  -0.000000
   86  O  3  S   -0.000321   0.041877   0.000000   0.011640  -0.000000
   87  O  3  X   -0.000000  -0.000000   0.000000  -0.000000   0.003517
   88  O  3  Y    0.000000  -0.000000   0.014475  -0.000000  -0.000000
   89  O  3  Z   -0.000044  -0.004943  -0.000000   0.009554  -0.000000
   90  O  3 XX    0.000030  -0.008783  -0.000000  -0.003644  -0.000000
   91  O  3 YY    0.000073   0.010223   0.000000   0.016259  -0.000000
   92  O  3 ZZ   -0.000103  -0.001439  -0.000000  -0.012615  -0.000000
   93  O  3 XY   -0.000000  -0.000000   0.000000  -0.000000  -0.000000
   94  O  3 XZ   -0.000000  -0.000000   0.000000  -0.000000  -0.009917
   95  O  3 YZ    0.000000  -0.000000  -0.008527  -0.000000  -0.000000
   96  O  3 XXX  -0.000000  -0.000000   0.000000  -0.000000   0.001888
   97  O  3 YYY  -0.000000  -0.000000   0.000740   0.000000  -0.000000
   98  O  3 ZZZ  -0.000113   0.002879   0.000000  -0.000111  -0.000000
   99  O  3 XXY  -0.000000  -0.000000  -0.002181  -0.000000  -0.000000
  100  O  3 XXZ  -0.000077   0.002019   0.000000   0.001789  -0.000000
  101  O  3 YYX  -0.000000  -0.000000   0.000000  -0.000000   0.000400
  102  O  3 YYZ   0.000228  -0.005881  -0.000000  -0.001640  -0.000000
  103  O  3 ZZX  -0.000000  -0.000000   0.000000  -0.000000  -0.002932
  104  O  3 ZZY  -0.000000  -0.000000   0.001188   0.000000  -0.000000
  105  O  3 XYZ  -0.000000  -0.000000   0.000000  -0.000000  -0.000000

                      6          7          8          9         10
                   -0.2140    -0.1319    -0.0752    -0.0684    -0.0554
                     A          A          A          A          A   
    1  H  1  S   -0.091903  -0.048497   0.083512   0.000000  -0.020987
    2  H  1  S   -0.192188  -0.119885   0.106847   0.000000   0.020228
    3  H  1  S   -0.233226  -0.254279  -0.171049   0.000000  -1.503981
    4  H  1  X   -0.000000  -0.000000  -0.000000   0.002004   0.000000
    5  H  1  Y    0.007738   0.007010  -0.004918   0.000000   0.005255
    6  H  1  Z    0.001236   0.005207  -0.000357   0.000000  -0.000797
    7  H  1  X   -0.000000  -0.000000  -0.000000   0.018182   0.000000
    8  H  1  Y    0.041655   0.032395  -0.088774   0.000000  -0.037059
    9  H  1  Z    0.011141   0.026466  -0.015643   0.000000  -0.033170
   10  H  1 XX   -0.001451  -0.000397   0.002729   0.000000   0.002158
   11  H  1 YY    0.002472   0.000024  -0.003516   0.000000  -0.001621
   12  H  1 ZZ   -0.001021   0.000373   0.000786   0.000000  -0.000537
   13  H  1 XY   -0.000000  -0.000000  -0.000000   0.001205   0.000000
   14  H  1 XZ   -0.000000  -0.000000  -0.000000   0.000815   0.000000
   15  H  1 YZ    0.000890   0.001103  -0.002654   0.000000  -0.001072
   16  H  1  S   -0.169323  -0.947423  -0.874418   0.000000  -0.249881
   17  H  1  X   -0.000000  -0.000000  -0.000000  -0.068774   0.000000
   18  H  1  Y    0.120489   0.161772  -0.438686   0.000000  -0.271697
   19  H  1  Z    0.042518   0.127326  -0.116832   0.000000  -0.112279
   20  H  1 XX   -0.005771  -0.010607   0.022346   0.000000   0.012411
   21  H  1 YY    0.011330   0.004745  -0.050012   0.000000  -0.024721
   22  H  1 ZZ   -0.005559   0.005861   0.027666   0.000000   0.012310
   23  H  1 XY   -0.000000  -0.000000  -0.000000  -0.022472   0.000000
   24  H  1 XZ   -0.000000  -0.000000  -0.000000  -0.004268   0.000000
   25  H  1 YZ    0.007998   0.012396  -0.032145   0.000000  -0.010942
   26  H  2  S   -0.091903   0.048497   0.083512   0.000000  -0.020987
   27  H  2  S   -0.192188   0.119885   0.106847   0.000000   0.020228
   28  H  2  S   -0.233226   0.254279  -0.171049   0.000000  -1.503981
   29  H  2  X   -0.000000  -0.000000  -0.000000   0.002004   0.000000
   30  H  2  Y   -0.007738   0.007010   0.004918   0.000000  -0.005255
   31  H  2  Z    0.001236  -0.005207  -0.000357   0.000000  -0.000797
   32  H  2  X   -0.000000  -0.000000  -0.000000   0.018182   0.000000
   33  H  2  Y   -0.041655   0.032395   0.088774   0.000000   0.037059
   34  H  2  Z    0.011141  -0.026466  -0.015643   0.000000  -0.033170
   35  H  2 XX   -0.001451   0.000397   0.002729   0.000000   0.002158
   36  H  2 YY    0.002472  -0.000024  -0.003516   0.000000  -0.001621
   37  H  2 ZZ   -0.001021  -0.000373   0.000786   0.000000  -0.000537
   38  H  2 XY   -0.000000  -0.000000  -0.000000  -0.001205   0.000000
   39  H  2 XZ   -0.000000  -0.000000  -0.000000   0.000815   0.000000
   40  H  2 YZ   -0.000890   0.001103   0.002654   0.000000   0.001072
   41  H  2  S   -0.169323   0.947423  -0.874418   0.000000  -0.249881
   42  H  2  X   -0.000000  -0.000000  -0.000000  -0.068774   0.000000
   43  H  2  Y   -0.120489   0.161772   0.438686   0.000000   0.271697
   44  H  2  Z    0.042518  -0.127326  -0.116832   0.000000  -0.112279
   45  H  2 XX   -0.005771   0.010607   0.022346   0.000000   0.012411
   46  H  2 YY    0.011330  -0.004745  -0.050012   0.000000  -0.024721
   47  H  2 ZZ   -0.005559  -0.005861   0.027666   0.000000   0.012310
   48  H  2 XY   -0.000000  -0.000000  -0.000000   0.022472   0.000000
   49  H  2 XZ   -0.000000  -0.000000  -0.000000  -0.004268   0.000000
   50  H  2 YZ   -0.007998   0.012396   0.032145   0.000000   0.010942
   51  O  3  S    0.014925  -0.000000  -0.013655   0.000000  -0.004766
   52  O  3  S    0.224853  -0.000000  -0.113784   0.000000   0.029990
   53  O  3  S    0.069691   0.000000  -0.037435   0.000000   0.013031
   54  O  3  S    0.269900  -0.000000   0.326267   0.000000   0.403964
   55  O  3  X   -0.000000  -0.000000  -0.000000  -0.112568   0.000000
   56  O  3  Y   -0.000000  -0.153170  -0.000000   0.000000  -0.000000
   57  O  3  Z   -0.103448  -0.000000   0.058550   0.000000   0.082055
   58  O  3  X   -0.000000  -0.000000  -0.000000  -0.124372   0.000000
   59  O  3  Y   -0.000000  -0.198107  -0.000000   0.000000   0.000000
   60  O  3  Z   -0.136367   0.000000   0.067993   0.000000   0.091364
   61  O  3  X   -0.000000  -0.000000  -0.000000  -0.141922   0.000000
   62  O  3  Y   -0.000000  -0.183168  -0.000000   0.000000   0.000000
   63  O  3  Z   -0.106338   0.000000  -0.108245   0.000000   0.063080
   64  O  3 XX    0.008638  -0.000000  -0.005914   0.000000   0.000907
   65  O  3 YY   -0.008260  -0.000000   0.006482   0.000000  -0.002072
   66  O  3 ZZ   -0.000378  -0.000000  -0.000568   0.000000   0.001164
   67  O  3 XY   -0.000000  -0.000000  -0.000000   0.000000   0.000000
   68  O  3 XZ   -0.000000  -0.000000  -0.000000  -0.001507   0.000000
   69  O  3 YZ   -0.000000  -0.001353  -0.000000   0.000000   0.000000
   70  O  3 XX    0.022435   0.000000  -0.037597   0.000000   0.018707
   71  O  3 YY   -0.027359  -0.000000   0.049902   0.000000  -0.008606
   72  O  3 ZZ    0.004924  -0.000000  -0.012305   0.000000  -0.010101
   73  O  3 XY   -0.000000  -0.000000  -0.000000   0.000000   0.000000
   74  O  3 XZ   -0.000000  -0.000000  -0.000000   0.013276   0.000000
   75  O  3 YZ    0.000000  -0.009534   0.000000   0.000000  -0.000000
   76  O  3 XXX  -0.000000  -0.000000  -0.000000  -0.001119   0.000000
   77  O  3 YYY  -0.000000   0.000420  -0.000000   0.000000  -0.000000
   78  O  3 ZZZ   0.000820  -0.000000   0.000543   0.000000  -0.000404
   79  O  3 XXY  -0.000000  -0.002834  -0.000000   0.000000   0.000000
   80  O  3 XXZ  -0.002677  -0.000000   0.002088   0.000000   0.001715
   81  O  3 YYX  -0.000000  -0.000000  -0.000000   0.000146   0.000000
   82  O  3 YYZ   0.001577  -0.000000  -0.002816   0.000000  -0.001173
   83  O  3 ZZX  -0.000000  -0.000000  -0.000000   0.001355   0.000000
   84  O  3 ZZY  -0.000000   0.002270  -0.000000   0.000000   0.000000
   85  O  3 XYZ  -0.000000  -0.000000  -0.000000   0.000000   0.000000
   86  O  3  S   -0.219599  -0.000000   1.589043   0.000000   2.634137
   87  O  3  X   -0.000000  -0.000000  -0.000000   1.171187   0.000000
   88  O  3  Y   -0.000000  -0.001274   0.000000   0.000000   0.000000
   89  O  3  Z    0.044386   0.000000  -0.072953   0.000000  -1.573766
   90  O  3 XX    0.017120  -0.000000  -0.037710   0.000000  -0.045153
   91  O  3 YY   -0.021266   0.000000   0.022673   0.000000  -0.010651
   92  O  3 ZZ    0.004146  -0.000000   0.015037   0.000000   0.055804
   93  O  3 XY   -0.000000  -0.000000  -0.000000   0.000000   0.000000
   94  O  3 XZ   -0.000000  -0.000000  -0.000000  -0.073644   0.000000
   95  O  3 YZ    0.000000   0.006747   0.000000   0.000000  -0.000000
   96  O  3 XXX  -0.000000  -0.000000  -0.000000  -0.000099   0.000000
   97  O  3 YYY  -0.000000   0.000484   0.000000   0.000000   0.000000
   98  O  3 ZZZ  -0.000467  -0.000000   0.005859   0.000000  -0.006700
   99  O  3 XXY   0.000000  -0.000870   0.000000   0.000000  -0.000000
  100  O  3 XXZ  -0.002659  -0.000000   0.006403   0.000000  -0.004215
  101  O  3 YYX  -0.000000  -0.000000  -0.000000  -0.001224   0.000000
  102  O  3 YYZ   0.003286  -0.000000  -0.014264   0.000000   0.013204
  103  O  3 ZZX  -0.000000  -0.000000  -0.000000   0.001357   0.000000
  104  O  3 ZZY  -0.000000   0.000221  -0.000000   0.000000  -0.000000
  105  O  3 XYZ  -0.000000  -0.000000  -0.000000   0.000000   0.000000

                     11         12         13         14         15
                   -0.0396     0.0131     0.0140     0.0259     0.0826
                     A          A          A          A          A   
    1  H  1  S   -0.067669   0.024523  -0.023697   0.000000  -0.037040
    2  H  1  S   -0.113162   0.486323  -0.483296   0.000000  -0.348258
    3  H  1  S    0.496112   2.324160  -2.209637   0.000000  -3.277380
    4  H  1  X   -0.000000  -0.000000   0.000000  -0.002774   0.000000
    5  H  1  Y    0.003140  -0.002899  -0.002800   0.000000   0.006277
    6  H  1  Z    0.005401  -0.003852   0.002736   0.000000  -0.002029
    7  H  1  X   -0.000000  -0.000000   0.000000  -0.139115   0.000000
    8  H  1  Y    0.074070   0.208566  -0.111169   0.000000  -0.276762
    9  H  1  Z    0.068821   0.013680  -0.173201   0.000000   0.026503
   10  H  1 XX   -0.001213  -0.006386   0.004763   0.000000   0.008412
   11  H  1 YY    0.001165   0.009327  -0.010957   0.000000  -0.011753
   12  H  1 ZZ    0.000048  -0.002941   0.006194   0.000000   0.003341
   13  H  1 XY   -0.000000  -0.000000   0.000000   0.000349   0.000000
   14  H  1 XZ   -0.000000  -0.000000   0.000000   0.003248   0.000000
   15  H  1 YZ    0.002234   0.004230  -0.009504   0.000000  -0.014190
   16  H  1  S    2.398325   2.013399  -0.640543   0.000000  -0.429579
   17  H  1  X   -0.000000  -0.000000   0.000000  -1.223093   0.000000
   18  H  1  Y    0.465150   0.338274  -0.074406   0.000000  -1.027790
   19  H  1  Z    0.520023  -0.206634  -0.782662   0.000000   0.992294
   20  H  1 XX   -0.040291   0.031881   0.017928   0.000000   0.069409
   21  H  1 YY    0.021746   0.017704   0.058089   0.000000  -0.180733
   22  H  1 ZZ    0.018545  -0.049585  -0.076018   0.000000   0.111324
   23  H  1 XY   -0.000000  -0.000000   0.000000  -0.149462   0.000000
   24  H  1 XZ   -0.000000  -0.000000   0.000000  -0.112690   0.000000
   25  H  1 YZ    0.060909  -0.023405  -0.078510   0.000000   0.096128
   26  H  2  S    0.067669  -0.024523  -0.023697   0.000000  -0.037040
   27  H  2  S    0.113162  -0.486323  -0.483296   0.000000  -0.348258
   28  H  2  S   -0.496112  -2.324160  -2.209637   0.000000  -3.277380
   29  H  2  X   -0.000000  -0.000000   0.000000   0.002774   0.000000
   30  H  2  Y    0.003140  -0.002899   0.002800   0.000000  -0.006277
   31  H  2  Z   -0.005401   0.003852   0.002736   0.000000  -0.002029
   32  H  2  X   -0.000000  -0.000000   0.000000   0.139115   0.000000
   33  H  2  Y    0.074070   0.208566   0.111169   0.000000   0.276762
   34  H  2  Z   -0.068821  -0.013679  -0.173201   0.000000   0.026503
   35  H  2 XX    0.001213   0.006386   0.004763   0.000000   0.008412
   36  H  2 YY   -0.001165  -0.009327  -0.010957   0.000000  -0.011753
   37  H  2 ZZ   -0.000048   0.002941   0.006194   0.000000   0.003341
   38  H  2 XY   -0.000000  -0.000000   0.000000   0.000349   0.000000
   39  H  2 XZ   -0.000000  -0.000000   0.000000  -0.003248   0.000000
   40  H  2 YZ    0.002234   0.004230   0.009504   0.000000   0.014190
   41  H  2  S   -2.398325  -2.013399  -0.640543   0.000000  -0.429579
   42  H  2  X   -0.000000  -0.000000   0.000000   1.223093   0.000000
   43  H  2  Y    0.465150   0.338274   0.074406   0.000000   1.027790
   44  H  2  Z   -0.520023   0.206634  -0.782662   0.000000   0.992294
   45  H  2 XX    0.040291  -0.031881   0.017928   0.000000   0.069409
   46  H  2 YY   -0.021746  -0.017704   0.058089   0.000000  -0.180733
   47  H  2 ZZ   -0.018545   0.049585  -0.076018   0.000000   0.111324
   48  H  2 XY   -0.000000  -0.000000   0.000000  -0.149462   0.000000
   49  H  2 XZ   -0.000000  -0.000000   0.000000   0.112690   0.000000
   50  H  2 YZ    0.060909  -0.023405   0.078510   0.000000  -0.096128
   51  O  3  S   -0.000000   0.000000  -0.029905   0.000000  -0.013390
   52  O  3  S   -0.000000   0.000000  -0.137254   0.000000  -0.039299
   53  O  3  S   -0.000000   0.000000  -0.050332   0.000000  -0.027431
   54  O  3  S    0.000000  -0.000000   0.474910   0.000000   0.897533
   55  O  3  X   -0.000000  -0.000000   0.000000   0.000000   0.000000
   56  O  3  Y   -0.128388  -0.027332  -0.000000   0.000000   0.000000
   57  O  3  Z   -0.000000   0.000000  -0.011825   0.000000  -0.087055
   58  O  3  X   -0.000000  -0.000000   0.000000   0.000000   0.000000
   59  O  3  Y   -0.150478  -0.019593  -0.000000   0.000000   0.000000
   60  O  3  Z   -0.000000   0.000000  -0.027828   0.000000  -0.089208
   61  O  3  X   -0.000000  -0.000000   0.000000   0.000000   0.000000
   62  O  3  Y    0.142886   0.775670   0.000000   0.000000   0.000000
   63  O  3  Z   -0.000000   0.000000  -0.186126   0.000000  -1.365312
   64  O  3 XX   -0.000000  -0.000000   0.003605   0.000000   0.010465
   65  O  3 YY   -0.000000   0.000000  -0.006684   0.000000  -0.007336
   66  O  3 ZZ   -0.000000  -0.000000   0.003079   0.000000  -0.003129
   67  O  3 XY   -0.000000  -0.000000   0.000000   0.005823   0.000000
   68  O  3 XZ   -0.000000  -0.000000   0.000000   0.000000   0.000000
   69  O  3 YZ   -0.003066   0.006843   0.000000   0.000000   0.000000
   70  O  3 XX   -0.000000   0.000000  -0.020921   0.000000  -0.029394
   71  O  3 YY    0.000000  -0.000000   0.012127   0.000000   0.057173
   72  O  3 ZZ   -0.000000  -0.000000   0.008794   0.000000  -0.027780
   73  O  3 XY   -0.000000  -0.000000   0.000000   0.035590   0.000000
   74  O  3 XZ   -0.000000  -0.000000   0.000000   0.000000   0.000000
   75  O  3 YZ   -0.034963  -0.008096   0.000000   0.000000  -0.000000
   76  O  3 XXX  -0.000000  -0.000000   0.000000   0.000000   0.000000
   77  O  3 YYY  -0.000504   0.001603   0.000000   0.000000  -0.000000
   78  O  3 ZZZ  -0.000000   0.000000  -0.001684   0.000000   0.005049
   79  O  3 XXY  -0.002958   0.002381   0.000000   0.000000   0.000000
   80  O  3 XXZ  -0.000000  -0.000000   0.000779   0.000000  -0.004422
   81  O  3 YYX  -0.000000  -0.000000   0.000000   0.000000   0.000000
   82  O  3 YYZ  -0.000000  -0.000000   0.001480   0.000000  -0.002353
   83  O  3 ZZX  -0.000000  -0.000000   0.000000   0.000000   0.000000
   84  O  3 ZZY   0.003634  -0.004531  -0.000000   0.000000   0.000000
   85  O  3 XYZ  -0.000000  -0.000000   0.000000  -0.007204   0.000000
   86  O  3  S    0.000000  -0.000000   5.578818   0.000000   6.353270
   87  O  3  X   -0.000000  -0.000000   0.000000  -0.000000   0.000000
   88  O  3  Y    0.863651   2.919805   0.000000   0.000000   0.000000
   89  O  3  Z   -0.000000  -0.000000   0.158664   0.000000  -2.579442
   90  O  3 XX   -0.000000   0.000000  -0.176890   0.000000  -0.048707
   91  O  3 YY   -0.000000  -0.000000   0.490290   0.000000  -0.213363
   92  O  3 ZZ    0.000000   0.000000  -0.313400   0.000000   0.262070
   93  O  3 XY   -0.000000  -0.000000   0.000000  -0.404227   0.000000
   94  O  3 XZ   -0.000000  -0.000000   0.000000   0.000000   0.000000
   95  O  3 YZ    0.012421  -0.428720  -0.000000   0.000000   0.000000
   96  O  3 XXX  -0.000000  -0.000000   0.000000   0.000000   0.000000
   97  O  3 YYY   0.011224  -0.000010   0.000000   0.000000   0.000000
   98  O  3 ZZZ  -0.000000  -0.000000   0.029073   0.000000   0.008772
   99  O  3 XXY  -0.007098  -0.030569  -0.000000   0.000000  -0.000000
  100  O  3 XXZ  -0.000000  -0.000000   0.006951   0.000000   0.030120
  101  O  3 YYX  -0.000000  -0.000000   0.000000   0.000000   0.000000
  102  O  3 YYZ  -0.000000   0.000000  -0.045957   0.000000  -0.041888
  103  O  3 ZZX  -0.000000  -0.000000   0.000000   0.000000   0.000000
  104  O  3 ZZY  -0.007961   0.030582   0.000000   0.000000  -0.000000
  105  O  3 XYZ  -0.000000  -0.000000   0.000000   0.037635   0.000000

                     16         17         18         19         20
                    0.0843     0.1491     0.1492     0.1769     0.3286
                     A          A          A          A          A   
    1  H  1  S    0.000000  -0.072945   0.047362  -0.068562   0.091261
    2  H  1  S    0.000000  -0.260135   0.003989  -0.452526   0.179772
    3  H  1  S    0.000000  -3.196523   1.590027  -5.101597  -6.594194
    4  H  1  X   -0.006732   0.000000  -0.000000  -0.000000  -0.000000
    5  H  1  Y    0.000000   0.007626  -0.009842   0.008523   0.012106
    6  H  1  Z    0.000000  -0.005830   0.007364   0.010742   0.026457
    7  H  1  X   -0.099055   0.000000  -0.000000  -0.000000  -0.000000
    8  H  1  Y    0.000000  -0.164156  -0.017403  -0.177280  -0.289103
    9  H  1  Z    0.000000  -0.045206   0.034005  -0.179296  -0.278387
   10  H  1 XX    0.000000   0.007226  -0.001726   0.000793   0.010418
   11  H  1 YY    0.000000  -0.003116   0.004884   0.001481  -0.014327
   12  H  1 ZZ    0.000000  -0.004111  -0.003159  -0.002275   0.003908
   13  H  1 XY    0.002694   0.000000  -0.000000  -0.000000  -0.000000
   14  H  1 XZ   -0.003542   0.000000  -0.000000  -0.000000  -0.000000
   15  H  1 YZ    0.000000  -0.005755  -0.001480  -0.009958  -0.012446
   16  H  1  S    0.000000  -0.751622   1.307284  -1.680553  -0.444183
   17  H  1  X   -1.695615   0.000000  -0.000000  -0.000000  -0.000000
   18  H  1  Y    0.000000  -2.054393  -1.396346  -3.018063  -1.311242
   19  H  1  Z    0.000000  -1.266479   1.543459  -1.202029  -1.098150
   20  H  1 XX    0.000000   0.112781   0.004386   0.173756   0.045204
   21  H  1 YY    0.000000  -0.231173  -0.146045  -0.177830   0.081188
   22  H  1 ZZ    0.000000   0.118391   0.141659   0.004074  -0.126392
   23  H  1 XY   -0.229486   0.000000  -0.000000  -0.000000  -0.000000
   24  H  1 XZ   -0.026013   0.000000  -0.000000  -0.000000  -0.000000
   25  H  1 YZ    0.000000  -0.228619   0.122654  -0.212330  -0.204770
   26  H  2  S    0.000000  -0.072945  -0.047362   0.068562   0.091261
   27  H  2  S    0.000000  -0.260135  -0.003989   0.452526   0.179772
   28  H  2  S    0.000000  -3.196524  -1.590025   5.101597  -6.594194
   29  H  2  X   -0.006732   0.000000  -0.000000  -0.000000  -0.000000
   30  H  2  Y    0.000000  -0.007626  -0.009842   0.008523  -0.012106
   31  H  2  Z    0.000000  -0.005830  -0.007364  -0.010742   0.026457
   32  H  2  X   -0.099055   0.000000  -0.000000  -0.000000  -0.000000
   33  H  2  Y    0.000000   0.164156  -0.017403  -0.177280   0.289103
   34  H  2  Z    0.000000  -0.045206  -0.034005   0.179296  -0.278387
   35  H  2 XX    0.000000   0.007226   0.001726  -0.000793   0.010418
   36  H  2 YY    0.000000  -0.003116  -0.004884  -0.001481  -0.014327
   37  H  2 ZZ    0.000000  -0.004111   0.003159   0.002275   0.003908
   38  H  2 XY   -0.002694   0.000000  -0.000000  -0.000000  -0.000000
   39  H  2 XZ   -0.003542   0.000000  -0.000000  -0.000000  -0.000000
   40  H  2 YZ    0.000000   0.005755  -0.001480  -0.009958   0.012446
   41  H  2  S    0.000000  -0.751622  -1.307283   1.680553  -0.444183
   42  H  2  X   -1.695615   0.000000  -0.000000  -0.000000  -0.000000
   43  H  2  Y    0.000000   2.054392  -1.396348  -3.018063   1.311242
   44  H  2  Z    0.000000  -1.266480  -1.543458   1.202029  -1.098150
   45  H  2 XX    0.000000   0.112781  -0.004386  -0.173756   0.045204
   46  H  2 YY    0.000000  -0.231172   0.146045   0.177830   0.081188
   47  H  2 ZZ    0.000000   0.118391  -0.141659  -0.004074  -0.126392
   48  H  2 XY    0.229486   0.000000  -0.000000  -0.000000  -0.000000
   49  H  2 XZ   -0.026013   0.000000  -0.000000  -0.000000  -0.000000
   50  H  2 YZ    0.000000   0.228619   0.122654  -0.212330   0.204770
   51  O  3  S    0.000000  -0.021093   0.000000   0.000000  -0.060245
   52  O  3  S    0.000000   0.098980  -0.000000   0.000000  -0.080260
   53  O  3  S    0.000000   0.033908  -0.000000   0.000000  -0.018181
   54  O  3  S    0.000000   3.015604  -0.000001  -0.000000   2.600222
   55  O  3  X    0.067380   0.000000  -0.000000  -0.000000  -0.000000
   56  O  3  Y    0.000000   0.000000   0.074438  -0.153520  -0.000000
   57  O  3  Z    0.000000  -0.064809   0.000000  -0.000000  -0.044050
   58  O  3  X    0.032961   0.000000  -0.000000  -0.000000  -0.000000
   59  O  3  Y    0.000000   0.000000   0.098487  -0.285009  -0.000000
   60  O  3  Z    0.000000  -0.159060   0.000000   0.000000  -0.162451
   61  O  3  X    0.909281   0.000000  -0.000000  -0.000000  -0.000000
   62  O  3  Y    0.000000   0.000000   0.382286  -1.782578  -0.000000
   63  O  3  Z    0.000000  -0.496435   0.000000   0.000000  -0.061327
   64  O  3 XX    0.000000   0.011795  -0.000000   0.000000  -0.017566
   65  O  3 YY    0.000000  -0.015437   0.000000  -0.000000   0.018684
   66  O  3 ZZ    0.000000   0.003642  -0.000000  -0.000000  -0.001118
   67  O  3 XY    0.000000   0.000000  -0.000000  -0.000000  -0.000000
   68  O  3 XZ    0.005934   0.000000  -0.000000  -0.000000  -0.000000
   69  O  3 YZ    0.000000   0.000000   0.001406  -0.011680   0.000000
   70  O  3 XX    0.000000  -0.033387   0.000000   0.000000  -0.056952
   71  O  3 YY    0.000000   0.041120  -0.000000  -0.000000   0.091084
   72  O  3 ZZ    0.000000  -0.007734   0.000000   0.000000  -0.034132
   73  O  3 XY    0.000000   0.000000  -0.000000  -0.000000  -0.000000
   74  O  3 XZ    0.020610   0.000000  -0.000000  -0.000000  -0.000000
   75  O  3 YZ    0.000000  -0.000000  -0.007524   0.060973   0.000000
   76  O  3 XXX   0.008286   0.000000  -0.000000  -0.000000  -0.000000
   77  O  3 YYY   0.000000  -0.000000  -0.007037   0.002227  -0.000000
   78  O  3 ZZZ   0.000000   0.004897  -0.000000  -0.000000   0.005278
   79  O  3 XXY   0.000000   0.000000   0.000824  -0.000078  -0.000000
   80  O  3 XXZ   0.000000   0.003264  -0.000000  -0.000000   0.004578
   81  O  3 YYX  -0.007065   0.000000  -0.000000  -0.000000  -0.000000
   82  O  3 YYZ   0.000000  -0.009834   0.000000  -0.000000  -0.011660
   83  O  3 ZZX  -0.004052   0.000000  -0.000000  -0.000000  -0.000000
   84  O  3 ZZY   0.000000   0.000000   0.008618  -0.002910   0.000000
   85  O  3 XYZ   0.000000   0.000000  -0.000000  -0.000000  -0.000000
   86  O  3  S    0.000000   6.516933  -0.000002   0.000000  10.647236
   87  O  3  X    2.187741   0.000000  -0.000000  -0.000000  -0.000000
   88  O  3  Y    0.000000   0.000001   3.853400  -1.446486  -0.000000
   89  O  3  Z    0.000000   0.026101  -0.000000  -0.000000  -1.391577
   90  O  3 XX    0.000000   0.224114  -0.000000   0.000000  -0.573478
   91  O  3 YY    0.000000  -0.332131   0.000000  -0.000000   1.038489
   92  O  3 ZZ    0.000000   0.108017  -0.000000  -0.000000  -0.465011
   93  O  3 XY   -0.000000   0.000000  -0.000000  -0.000000  -0.000000
   94  O  3 XZ   -0.205012   0.000000  -0.000000  -0.000000  -0.000000
   95  O  3 YZ    0.000000   0.000000   0.332260  -0.222125   0.000000
   96  O  3 XXX  -0.039611   0.000000  -0.000000  -0.000000  -0.000000
   97  O  3 YYY   0.000000   0.000000   0.029445  -0.048008   0.000000
   98  O  3 ZZZ   0.000000  -0.011859   0.000000  -0.000000   0.012788
   99  O  3 XXY   0.000000   0.000000   0.006815   0.011372   0.000000
  100  O  3 XXZ   0.000000  -0.017129   0.000000  -0.000000  -0.001922
  101  O  3 YYX   0.041941   0.000000  -0.000000  -0.000000  -0.000000
  102  O  3 YYZ   0.000000   0.033040  -0.000000   0.000000  -0.015235
  103  O  3 ZZX   0.011203   0.000000  -0.000000  -0.000000  -0.000000
  104  O  3 ZZY   0.000000  -0.000000  -0.046320   0.053037  -0.000000
  105  O  3 XYZ   0.000000   0.000000  -0.000000  -0.000000  -0.000000

                     21         22         23         24         25
                    0.3410     0.3910     0.3918     0.4060     0.5075
                     A          A          A          A          A   
    1  H  1  S    0.114175  -0.000000   0.022158   0.000000   0.050797
    2  H  1  S   -1.150505  -0.000000   0.615758   0.000000   1.838632
    3  H  1  S   -6.747389  -0.000000   0.143938   0.000000  -2.137196
    4  H  1  X   -0.000000   0.004726  -0.000000  -0.032399   0.000000
    5  H  1  Y    0.022196  -0.000000   0.000902   0.000000   0.043078
    6  H  1  Z   -0.000130  -0.000000   0.014139   0.000000  -0.029277
    7  H  1  X   -0.000000  -0.095816  -0.000000   0.280069   0.000000
    8  H  1  Y   -0.693473  -0.000000   0.116606   0.000000  -0.068209
    9  H  1  Z   -0.227156  -0.000000  -0.053763   0.000000   0.360203
   10  H  1 XX    0.022141  -0.000000  -0.011008   0.000000  -0.001410
   11  H  1 YY   -0.027804  -0.000000  -0.000372   0.000000   0.009169
   12  H  1 ZZ    0.005663  -0.000000   0.011379   0.000000  -0.007759
   13  H  1 XY   -0.000000  -0.009525  -0.000000   0.005191   0.000000
   14  H  1 XZ   -0.000000   0.009280  -0.000000  -0.004370   0.000000
   15  H  1 YZ   -0.011958  -0.000000  -0.001839   0.000000  -0.001973
   16  H  1  S   -1.240207  -0.000000   0.018004   0.000000   0.007113
   17  H  1  X   -0.000000  -0.838950  -0.000000   1.399428   0.000000
   18  H  1  Y   -1.665228  -0.000000   0.115130   0.000000  -1.013845
   19  H  1  Z   -0.372057  -0.000000  -0.885828   0.000000   0.936179
   20  H  1 XX   -0.085651  -0.000000   0.169943   0.000000   0.167811
   21  H  1 YY   -0.112697  -0.000000   0.144832   0.000000  -0.530698
   22  H  1 ZZ    0.198348  -0.000000  -0.314775   0.000000   0.362887
   23  H  1 XY   -0.000000   0.056669  -0.000000   0.537087   0.000000
   24  H  1 XZ   -0.000000  -0.268134  -0.000000   0.280439   0.000000
   25  H  1 YZ    0.098091  -0.000000   0.042308   0.000000   0.491350
   26  H  2  S   -0.114175  -0.000000   0.022158   0.000000   0.050797
   27  H  2  S    1.150505  -0.000000   0.615758   0.000000   1.838632
   28  H  2  S    6.747389  -0.000000   0.143938   0.000000  -2.137196
   29  H  2  X   -0.000000   0.004726  -0.000000   0.032399   0.000000
   30  H  2  Y    0.022196  -0.000000  -0.000902   0.000000  -0.043078
   31  H  2  Z    0.000130  -0.000000   0.014139   0.000000  -0.029277
   32  H  2  X   -0.000000  -0.095816  -0.000000  -0.280069   0.000000
   33  H  2  Y   -0.693473  -0.000000  -0.116606   0.000000   0.068209
   34  H  2  Z    0.227156  -0.000000  -0.053763   0.000000   0.360203
   35  H  2 XX   -0.022141  -0.000000  -0.011008   0.000000  -0.001410
   36  H  2 YY    0.027804  -0.000000  -0.000372   0.000000   0.009169
   37  H  2 ZZ   -0.005663  -0.000000   0.011379   0.000000  -0.007759
   38  H  2 XY   -0.000000   0.009525  -0.000000   0.005191   0.000000
   39  H  2 XZ   -0.000000   0.009280  -0.000000   0.004370   0.000000
   40  H  2 YZ   -0.011958  -0.000000   0.001839   0.000000   0.001973
   41  H  2  S    1.240207  -0.000000   0.018004   0.000000   0.007113
   42  H  2  X   -0.000000  -0.838950  -0.000000  -1.399428   0.000000
   43  H  2  Y   -1.665228  -0.000000  -0.115130   0.000000   1.013845
   44  H  2  Z    0.372057  -0.000000  -0.885828   0.000000   0.936179
   45  H  2 XX    0.085651  -0.000000   0.169943   0.000000   0.167811
   46  H  2 YY    0.112697  -0.000000   0.144832   0.000000  -0.530698
   47  H  2 ZZ   -0.198348  -0.000000  -0.314775   0.000000   0.362887
   48  H  2 XY   -0.000000  -0.056669  -0.000000   0.537087   0.000000
   49  H  2 XZ   -0.000000  -0.268134  -0.000000  -0.280439   0.000000
   50  H  2 YZ    0.098091  -0.000000  -0.042308   0.000000  -0.491350
   51  O  3  S    0.000000  -0.000000   0.005397   0.000000   0.009668
   52  O  3  S    0.000000  -0.000000   0.018698   0.000000  -0.077622
   53  O  3  S    0.000000  -0.000000   0.011949   0.000000  -0.014150
   54  O  3  S   -0.000000  -0.000000  -0.277176   0.000000  -0.448124
   55  O  3  X   -0.000000   0.059107  -0.000000   0.000000   0.000000
   56  O  3  Y    0.015435  -0.000000   0.000000   0.000000  -0.000000
   57  O  3  Z    0.000000  -0.000000   0.035569   0.000000   0.025040
   58  O  3  X   -0.000000   0.112751  -0.000000   0.000000   0.000000
   59  O  3  Y   -0.045434  -0.000000   0.000000   0.000000  -0.000000
   60  O  3  Z    0.000000  -0.000000   0.070907   0.000000   0.084309
   61  O  3  X   -0.000000   0.211503  -0.000000  -0.000000   0.000000
   62  O  3  Y   -3.104451  -0.000000  -0.000000   0.000000   0.000000
   63  O  3  Z    0.000000  -0.000000   0.790486   0.000000  -1.125698
   64  O  3 XX    0.000000  -0.000000   0.025944   0.000000  -0.010995
   65  O  3 YY   -0.000000  -0.000000   0.004453   0.000000  -0.000801
   66  O  3 ZZ   -0.000000  -0.000000  -0.030397   0.000000   0.011796
   67  O  3 XY   -0.000000  -0.000000  -0.000000   0.029284   0.000000
   68  O  3 XZ   -0.000000  -0.035050  -0.000000   0.000000   0.000000
   69  O  3 YZ    0.011501  -0.000000  -0.000000   0.000000   0.000000
   70  O  3 XX    0.000000  -0.000000  -0.009683   0.000000   0.014783
   71  O  3 YY   -0.000000  -0.000000  -0.028787   0.000000  -0.051280
   72  O  3 ZZ    0.000000  -0.000000   0.038471   0.000000   0.036498
   73  O  3 XY   -0.000000  -0.000000  -0.000000   0.036391   0.000000
   74  O  3 XZ   -0.000000   0.038681  -0.000000   0.000000   0.000000
   75  O  3 YZ    0.168287  -0.000000   0.000000   0.000000  -0.000000
   76  O  3 XXX  -0.000000   0.006463  -0.000000   0.000000   0.000000
   77  O  3 YYY  -0.005619  -0.000000   0.000000   0.000000  -0.000000
   78  O  3 ZZZ  -0.000000  -0.000000   0.009145   0.000000   0.019162
   79  O  3 XXY  -0.004689  -0.000000  -0.000000   0.000000  -0.000000
   80  O  3 XXZ  -0.000000  -0.000000   0.003698   0.000000  -0.002812
   81  O  3 YYX  -0.000000  -0.013589  -0.000000   0.000000   0.000000
   82  O  3 YYZ   0.000000  -0.000000  -0.015968   0.000000  -0.022897
   83  O  3 ZZX  -0.000000   0.004917  -0.000000   0.000000   0.000000
   84  O  3 ZZY   0.012227  -0.000000  -0.000000   0.000000   0.000000
   85  O  3 XYZ  -0.000000  -0.000000  -0.000000   0.020158   0.000000
   86  O  3  S   -0.000000  -0.000000  -0.539872   0.000000   2.296700
   87  O  3  X   -0.000000   1.164349  -0.000000   0.000000   0.000000
   88  O  3  Y   -3.531526  -0.000000   0.000000   0.000000   0.000000
   89  O  3  Z    0.000000  -0.000000   1.156716   0.000000  -1.514117
   90  O  3 XX    0.000000  -0.000000   0.783100   0.000000   0.427536
   91  O  3 YY   -0.000000  -0.000000   0.081615   0.000000  -2.168950
   92  O  3 ZZ   -0.000000  -0.000000  -0.864716   0.000000   1.741414
   93  O  3 XY   -0.000000  -0.000000  -0.000000   1.987642   0.000000
   94  O  3 XZ   -0.000000  -0.866247  -0.000000  -0.000000   0.000000
   95  O  3 YZ    1.823374  -0.000000  -0.000000   0.000000   0.000000
   96  O  3 XXX  -0.000000  -0.046854  -0.000000   0.000000   0.000000
   97  O  3 YYY  -0.008768  -0.000000  -0.000000   0.000000   0.000000
   98  O  3 ZZZ  -0.000000  -0.000000  -0.048780   0.000000  -0.140780
   99  O  3 XXY   0.125780  -0.000000   0.000000   0.000000   0.000000
  100  O  3 XXZ  -0.000000  -0.000000  -0.039637   0.000000   0.013215
  101  O  3 YYX  -0.000000   0.075495  -0.000000  -0.000000   0.000000
  102  O  3 YYZ   0.000000  -0.000000   0.105082   0.000000   0.175660
  103  O  3 ZZX  -0.000000  -0.012634  -0.000000   0.000000   0.000000
  104  O  3 ZZY  -0.114016  -0.000000   0.000000   0.000000  -0.000000
  105  O  3 XYZ  -0.000000   0.000000  -0.000000  -0.160061   0.000000

                     26         27         28         29         30
                    0.5586     0.5658     0.5879     0.5989     0.6232
                     A          A          A          A          A   
    1  H  1  S   -0.000000   0.038362  -0.000000  -0.000000   0.075811
    2  H  1  S   -0.000000   1.441173  -0.000000  -0.000000  -2.715432
    3  H  1  S   -0.000000  -1.895835  -0.000000  -0.000000  -5.357506
    4  H  1  X    0.010514   0.000000   0.017776  -0.003817  -0.000000
    5  H  1  Y   -0.000000   0.004489  -0.000000  -0.000000  -0.010625
    6  H  1  Z   -0.000000   0.011424  -0.000000  -0.000000  -0.022452
    7  H  1  X   -0.169501   0.000000  -0.082663  -0.057940  -0.000000
    8  H  1  Y   -0.000000   0.004323  -0.000000  -0.000000  -1.339416
    9  H  1  Z   -0.000000  -0.146146  -0.000000  -0.000000  -0.459828
   10  H  1 XX   -0.000000   0.025851  -0.000000  -0.000000   0.031584
   11  H  1 YY   -0.000000  -0.005174  -0.000000  -0.000000  -0.060746
   12  H  1 ZZ   -0.000000  -0.020677  -0.000000  -0.000000   0.029161
   13  H  1 XY   -0.020228   0.000000   0.029346  -0.003637  -0.000000
   14  H  1 XZ   -0.015101   0.000000  -0.015981  -0.040216  -0.000000
   15  H  1 YZ   -0.000000  -0.006611  -0.000000  -0.000000  -0.064636
   16  H  1  S   -0.000000  -0.233971  -0.000000  -0.000000  -0.452485
   17  H  1  X   -1.264940   0.000000  -1.250733   0.495304  -0.000000
   18  H  1  Y   -0.000000  -0.022936  -0.000000  -0.000000  -1.731515
   19  H  1  Z   -0.000000  -0.836932  -0.000000  -0.000000  -0.001308
   20  H  1 XX   -0.000000  -0.460484  -0.000000  -0.000000   0.394083
   21  H  1 YY   -0.000000   0.183416  -0.000000  -0.000000  -0.760463
   22  H  1 ZZ   -0.000000   0.277068  -0.000000  -0.000000   0.366380
   23  H  1 XY   -0.406767   0.000000  -1.049767   0.269013  -0.000000
   24  H  1 XZ   -0.221967   0.000000   0.181471   0.891659  -0.000000
   25  H  1 YZ   -0.000000  -0.276518  -0.000000  -0.000000   0.031116
   26  H  2  S   -0.000000  -0.038362  -0.000000  -0.000000   0.075811
   27  H  2  S   -0.000000  -1.441173  -0.000000  -0.000000  -2.715432
   28  H  2  S   -0.000000   1.895835  -0.000000  -0.000000  -5.357506
   29  H  2  X    0.010514   0.000000   0.017776   0.003817  -0.000000
   30  H  2  Y   -0.000000   0.004489  -0.000000  -0.000000   0.010625
   31  H  2  Z   -0.000000  -0.011424  -0.000000  -0.000000  -0.022452
   32  H  2  X   -0.169501   0.000000  -0.082663   0.057940  -0.000000
   33  H  2  Y   -0.000000   0.004323  -0.000000  -0.000000   1.339416
   34  H  2  Z   -0.000000   0.146146  -0.000000  -0.000000  -0.459828
   35  H  2 XX   -0.000000  -0.025851  -0.000000  -0.000000   0.031584
   36  H  2 YY   -0.000000   0.005174  -0.000000  -0.000000  -0.060746
   37  H  2 ZZ   -0.000000   0.020677  -0.000000  -0.000000   0.029161
   38  H  2 XY    0.020228   0.000000  -0.029346  -0.003637  -0.000000
   39  H  2 XZ   -0.015101   0.000000  -0.015981   0.040216  -0.000000
   40  H  2 YZ   -0.000000  -0.006611  -0.000000  -0.000000   0.064636
   41  H  2  S   -0.000000   0.233971  -0.000000  -0.000000  -0.452485
   42  H  2  X   -1.264940   0.000000  -1.250733  -0.495304  -0.000000
   43  H  2  Y   -0.000000  -0.022936  -0.000000  -0.000000   1.731515
   44  H  2  Z   -0.000000   0.836932  -0.000000  -0.000000  -0.001308
   45  H  2 XX   -0.000000   0.460484  -0.000000  -0.000000   0.394083
   46  H  2 YY   -0.000000  -0.183416  -0.000000  -0.000000  -0.760463
   47  H  2 ZZ   -0.000000  -0.277068  -0.000000  -0.000000   0.366380
   48  H  2 XY    0.406767   0.000000   1.049767   0.269013  -0.000000
   49  H  2 XZ   -0.221967   0.000000   0.181471  -0.891659  -0.000000
   50  H  2 YZ   -0.000000  -0.276518  -0.000000  -0.000000  -0.031116
   51  O  3  S   -0.000000   0.000000  -0.000000  -0.000000  -0.079276
   52  O  3  S   -0.000000   0.000000  -0.000000  -0.000000  -0.060454
   53  O  3  S   -0.000000   0.000000  -0.000000  -0.000000  -0.087401
   54  O  3  S   -0.000000  -0.000000  -0.000000  -0.000000   6.665206
   55  O  3  X   -0.245385   0.000000   0.047184  -0.000000  -0.000000
   56  O  3  Y   -0.000000   0.089217  -0.000000  -0.000000  -0.000000
   57  O  3  Z   -0.000000  -0.000000  -0.000000  -0.000000   0.220009
   58  O  3  X   -0.717996   0.000000   0.116867  -0.000000  -0.000000
   59  O  3  Y   -0.000000   0.134419  -0.000000  -0.000000  -0.000000
   60  O  3  Z   -0.000000  -0.000000  -0.000000  -0.000000   0.337555
   61  O  3  X    2.918031   0.000000   1.645050   0.000000  -0.000000
   62  O  3  Y   -0.000000   0.374866  -0.000000  -0.000000   0.000000
   63  O  3  Z   -0.000000   0.000000  -0.000000  -0.000000  -4.776473
   64  O  3 XX   -0.000000  -0.000000  -0.000000  -0.000000   0.023708
   65  O  3 YY   -0.000000   0.000000  -0.000000  -0.000000  -0.022418
   66  O  3 ZZ   -0.000000   0.000000  -0.000000  -0.000000  -0.001289
   67  O  3 XY   -0.000000   0.000000  -0.000000  -0.012102  -0.000000
   68  O  3 XZ    0.000775   0.000000  -0.014225  -0.000000  -0.000000
   69  O  3 YZ   -0.000000  -0.012572  -0.000000  -0.000000   0.000000
   70  O  3 XX   -0.000000   0.000000  -0.000000  -0.000000  -0.317123
   71  O  3 YY   -0.000000  -0.000000  -0.000000  -0.000000   0.388845
   72  O  3 ZZ   -0.000000   0.000000  -0.000000  -0.000000  -0.071722
   73  O  3 XY   -0.000000   0.000000  -0.000000   0.049605  -0.000000
   74  O  3 XZ   -0.047654   0.000000  -0.006503  -0.000000  -0.000000
   75  O  3 YZ   -0.000000   0.037271  -0.000000  -0.000000  -0.000000
   76  O  3 XXX   0.007503   0.000000   0.015161  -0.000000  -0.000000
   77  O  3 YYY  -0.000000  -0.008648  -0.000000  -0.000000  -0.000000
   78  O  3 ZZZ  -0.000000   0.000000  -0.000000  -0.000000   0.000907
   79  O  3 XXY  -0.000000   0.028069  -0.000000  -0.000000   0.000000
   80  O  3 XXZ  -0.000000   0.000000  -0.000000  -0.000000  -0.002048
   81  O  3 YYX  -0.014890   0.000000  -0.003693  -0.000000  -0.000000
   82  O  3 YYZ  -0.000000   0.000000  -0.000000  -0.000000   0.000832
   83  O  3 ZZX   0.004824   0.000000  -0.016647  -0.000000  -0.000000
   84  O  3 ZZY  -0.000000  -0.016466  -0.000000  -0.000000   0.000000
   85  O  3 XYZ  -0.000000   0.000000  -0.000000  -0.003947  -0.000000
   86  O  3  S   -0.000000  -0.000000  -0.000000  -0.000000   8.957447
   87  O  3  X    0.613818   0.000000   1.200637   0.000000  -0.000000
   88  O  3  Y   -0.000000  -1.174970  -0.000000  -0.000000   0.000000
   89  O  3  Z   -0.000000  -0.000000  -0.000000  -0.000000  -1.153264
   90  O  3 XX   -0.000000   0.000000  -0.000000  -0.000000  -1.141760
   91  O  3 YY   -0.000000  -0.000000  -0.000000  -0.000000   0.874796
   92  O  3 ZZ   -0.000000   0.000000  -0.000000  -0.000000   0.266964
   93  O  3 XY   -0.000000   0.000000  -0.000000   0.475423  -0.000000
   94  O  3 XZ   -0.597896   0.000000  -1.378950  -0.000000  -0.000000
   95  O  3 YZ   -0.000000  -1.228687  -0.000000  -0.000000   0.000000
   96  O  3 XXX  -0.106516   0.000000  -0.102942  -0.000000  -0.000000
   97  O  3 YYY  -0.000000   0.005804  -0.000000  -0.000000   0.000000
   98  O  3 ZZZ  -0.000000  -0.000000  -0.000000  -0.000000   0.166322
   99  O  3 XXY  -0.000000  -0.121827  -0.000000  -0.000000  -0.000000
  100  O  3 XXZ  -0.000000  -0.000000  -0.000000  -0.000000   0.157296
  101  O  3 YYX   0.149400   0.000000   0.056438   0.000000  -0.000000
  102  O  3 YYZ  -0.000000   0.000000  -0.000000  -0.000000  -0.380440
  103  O  3 ZZX  -0.006494   0.000000   0.081674   0.000000  -0.000000
  104  O  3 ZZY  -0.000000   0.114040  -0.000000  -0.000000  -0.000000
  105  O  3 XYZ  -0.000000   0.000000  -0.000000   0.007233  -0.000000

                     31         32         33         34         35
                    0.6578     0.7078     0.7316     0.7326     0.7431
                     A          A          A          A          A   
    1  H  1  S   -0.073377   0.069841  -0.062483   0.057352  -0.000000
    2  H  1  S   -0.235432   1.709052  -0.005082   0.262758  -0.000000
    3  H  1  S    5.190521  -4.076447   4.723351  -1.665667  -0.000000
    4  H  1  X    0.000000   0.000000   0.000000  -0.000000  -0.005493
    5  H  1  Y   -0.006222   0.021716  -0.018884   0.025437  -0.000000
    6  H  1  Z   -0.003094   0.009099  -0.016951   0.008238  -0.000000
    7  H  1  X    0.000000   0.000000   0.000000  -0.000000  -0.016510
    8  H  1  Y    0.390097   0.009722   0.177754  -0.063979  -0.000000
    9  H  1  Z    0.273945   0.033955   0.317392   0.053638  -0.000000
   10  H  1 XX    0.004209   0.026851  -0.001307  -0.022449  -0.000000
   11  H  1 YY    0.006746   0.005500  -0.007641   0.008297  -0.000000
   12  H  1 ZZ   -0.010955  -0.032351   0.008948   0.014152  -0.000000
   13  H  1 XY    0.000000   0.000000   0.000000  -0.000000  -0.001605
   14  H  1 XZ    0.000000   0.000000   0.000000  -0.000000   0.023939
   15  H  1 YZ    0.019006   0.013674   0.006767  -0.000110  -0.000000
   16  H  1  S    1.046693  -0.274267   0.604337  -0.143767  -0.000000
   17  H  1  X    0.000000   0.000000   0.000000  -0.000000  -0.804397
   18  H  1  Y    0.537087  -2.046949   2.991977  -1.107180  -0.000000
   19  H  1  Z    2.214139  -1.108511   0.658622  -1.192894  -0.000000
   20  H  1 XX   -0.496419  -0.162935  -0.583259   0.994436  -0.000000
   21  H  1 YY   -0.407332  -0.588752   1.089978  -0.497866  -0.000000
   22  H  1 ZZ    0.903751   0.751687  -0.506718  -0.496570  -0.000000
   23  H  1 XY    0.000000   0.000000   0.000000  -0.000000  -0.564995
   24  H  1 XZ    0.000000   0.000000   0.000000  -0.000000  -1.012473
   25  H  1 YZ    0.716768  -0.922884   0.694337  -0.695859  -0.000000
   26  H  2  S    0.073377   0.069841   0.062483   0.057352  -0.000000
   27  H  2  S    0.235432   1.709052   0.005082   0.262758  -0.000000
   28  H  2  S   -5.190521  -4.076447  -4.723351  -1.665667  -0.000000
   29  H  2  X    0.000000   0.000000   0.000000  -0.000000  -0.005493
   30  H  2  Y   -0.006222  -0.021716  -0.018884  -0.025437  -0.000000
   31  H  2  Z    0.003094   0.009099   0.016951   0.008238  -0.000000
   32  H  2  X    0.000000   0.000000   0.000000  -0.000000  -0.016510
   33  H  2  Y    0.390097  -0.009722   0.177754   0.063979  -0.000000
   34  H  2  Z   -0.273945   0.033955  -0.317392   0.053638  -0.000000
   35  H  2 XX   -0.004209   0.026851   0.001307  -0.022449  -0.000000
   36  H  2 YY   -0.006746   0.005500   0.007641   0.008297  -0.000000
   37  H  2 ZZ    0.010955  -0.032351  -0.008948   0.014152  -0.000000
   38  H  2 XY    0.000000   0.000000   0.000000  -0.000000   0.001605
   39  H  2 XZ    0.000000   0.000000   0.000000  -0.000000   0.023939
   40  H  2 YZ    0.019006  -0.013674   0.006767   0.000110  -0.000000
   41  H  2  S   -1.046693  -0.274267  -0.604337  -0.143767  -0.000000
   42  H  2  X    0.000000   0.000000   0.000000  -0.000000  -0.804397
   43  H  2  Y    0.537087   2.046949   2.991977   1.107180  -0.000000
   44  H  2  Z   -2.214139  -1.108511  -0.658622  -1.192894  -0.000000
   45  H  2 XX    0.496419  -0.162935   0.583259   0.994436  -0.000000
   46  H  2 YY    0.407332  -0.588752  -1.089978  -0.497866  -0.000000
   47  H  2 ZZ   -0.903751   0.751687   0.506718  -0.496570  -0.000000
   48  H  2 XY    0.000000   0.000000   0.000000  -0.000000   0.564995
   49  H  2 XZ    0.000000   0.000000   0.000000  -0.000000  -1.012473
   50  H  2 YZ    0.716768   0.922884   0.694337   0.695859  -0.000000
   51  O  3  S    0.000000  -0.029924  -0.000000  -0.025355  -0.000000
   52  O  3  S    0.000000  -0.226042  -0.000000  -0.169116  -0.000000
   53  O  3  S    0.000000  -0.065021  -0.000000  -0.051456  -0.000000
   54  O  3  S   -0.000000   3.578837   0.000000   3.535095  -0.000000
   55  O  3  X    0.000000   0.000000   0.000000  -0.000000   0.048041
   56  O  3  Y   -0.141068   0.000000  -0.155942   0.000000  -0.000000
   57  O  3  Z   -0.000000   0.057132  -0.000000   0.001935  -0.000000
   58  O  3  X    0.000000   0.000000   0.000000  -0.000000   0.139826
   59  O  3  Y   -0.129049  -0.000000  -0.001186  -0.000000  -0.000000
   60  O  3  Z   -0.000000  -0.038287  -0.000000  -0.174663  -0.000000
   61  O  3  X    0.000000   0.000000   0.000000  -0.000000   1.592233
   62  O  3  Y    2.810488  -0.000000   1.274005  -0.000000  -0.000000
   63  O  3  Z    0.000000   0.335303   0.000000   1.028922  -0.000000
   64  O  3 XX   -0.000000   0.009485  -0.000000  -0.014509  -0.000000
   65  O  3 YY    0.000000   0.001848   0.000000   0.000685  -0.000000
   66  O  3 ZZ    0.000000  -0.011333   0.000000   0.013823  -0.000000
   67  O  3 XY    0.000000   0.000000   0.000000  -0.000000  -0.000000
   68  O  3 XZ    0.000000   0.000000   0.000000  -0.000000   0.021499
   69  O  3 YZ    0.006440  -0.000000   0.005890  -0.000000  -0.000000
   70  O  3 XX    0.000000  -0.081213   0.000000   0.002032  -0.000000
   71  O  3 YY   -0.000000   0.072045   0.000000   0.071758  -0.000000
   72  O  3 ZZ    0.000000   0.009168  -0.000000  -0.073791  -0.000000
   73  O  3 XY    0.000000   0.000000   0.000000  -0.000000  -0.000000
   74  O  3 XZ    0.000000   0.000000   0.000000  -0.000000  -0.076366
   75  O  3 YZ   -0.090854   0.000000  -0.126565   0.000000  -0.000000
   76  O  3 XXX   0.000000   0.000000   0.000000  -0.000000   0.016625
   77  O  3 YYY  -0.023112   0.000000   0.005813  -0.000000  -0.000000
   78  O  3 ZZZ   0.000000   0.000648   0.000000   0.015413  -0.000000
   79  O  3 XXY   0.004657  -0.000000  -0.010733   0.000000  -0.000000
   80  O  3 XXZ   0.000000   0.015111   0.000000   0.002260  -0.000000
   81  O  3 YYX   0.000000   0.000000   0.000000  -0.000000  -0.030055
   82  O  3 YYZ   0.000000  -0.015980  -0.000000  -0.022939  -0.000000
   83  O  3 ZZX   0.000000   0.000000   0.000000  -0.000000   0.007750
   84  O  3 ZZY   0.026352   0.000000   0.002934  -0.000000  -0.000000
   85  O  3 XYZ   0.000000   0.000000   0.000000  -0.000000  -0.000000
   86  O  3  S   -0.000000   4.797828  -0.000000   1.531653  -0.000000
   87  O  3  X    0.000000   0.000000   0.000000  -0.000000   0.579739
   88  O  3  Y    3.157299  -0.000000   0.191359  -0.000000  -0.000000
   89  O  3  Z    0.000000  -0.215290   0.000000   0.440186  -0.000000
   90  O  3 XX    0.000000   1.858890  -0.000000  -0.302109  -0.000000
   91  O  3 YY   -0.000000  -1.447850   0.000000  -0.193362  -0.000000
   92  O  3 ZZ   -0.000000  -0.411040   0.000000   0.495471  -0.000000
   93  O  3 XY    0.000000   0.000000   0.000000  -0.000000  -0.000000
   94  O  3 XZ    0.000000   0.000000   0.000000  -0.000000   0.592575
   95  O  3 YZ    1.085760   0.000000   0.280839   0.000000  -0.000000
   96  O  3 XXX   0.000000   0.000000   0.000000  -0.000000  -0.115541
   97  O  3 YYY   0.223775  -0.000000  -0.032384  -0.000000  -0.000000
   98  O  3 ZZZ  -0.000000  -0.044876  -0.000000  -0.099577  -0.000000
   99  O  3 XXY  -0.088998   0.000000   0.055400   0.000000  -0.000000
  100  O  3 XXZ  -0.000000  -0.091404  -0.000000  -0.042219  -0.000000
  101  O  3 YYX   0.000000   0.000000   0.000000  -0.000000   0.189834
  102  O  3 YYZ   0.000000   0.151612   0.000000   0.175816  -0.000000
  103  O  3 ZZX   0.000000   0.000000   0.000000  -0.000000  -0.034819
  104  O  3 ZZY  -0.211227  -0.000000  -0.011952   0.000000  -0.000000
  105  O  3 XYZ   0.000000   0.000000   0.000000  -0.000000  -0.000000

                     36         37         38         39         40
                    0.7775     0.8016     0.8258     1.0508     1.1838
                     A          A          A          A          A   
    1  H  1  S    0.008940   0.000000  -0.001948   0.009710   0.000000
    2  H  1  S    0.514717   0.000000   0.066187   6.290532   0.000000
    3  H  1  S   -1.833904   0.000000   3.059610   4.992067   0.000000
    4  H  1  X    0.000000  -0.001311  -0.000000  -0.000000  -0.073277
    5  H  1  Y   -0.006758   0.000000   0.017783  -0.021730   0.000000
    6  H  1  Z    0.013493   0.000000  -0.010570   0.029295   0.000000
    7  H  1  X    0.000000   0.157437  -0.000000  -0.000000   1.875917
    8  H  1  Y   -0.070980   0.000000   0.223503   2.323497   0.000000
    9  H  1  Z   -0.314791   0.000000   0.588538  -0.224522   0.000000
   10  H  1 XX    0.015009   0.000000  -0.000412  -0.060661   0.000000
   11  H  1 YY   -0.033856   0.000000  -0.002511   0.094631   0.000000
   12  H  1 ZZ    0.018847   0.000000   0.002923  -0.033970   0.000000
   13  H  1 XY    0.000000  -0.020256  -0.000000  -0.000000   0.026763
   14  H  1 XZ    0.000000   0.016771  -0.000000  -0.000000  -0.005439
   15  H  1 YZ   -0.002892   0.000000   0.063711   0.023981   0.000000
   16  H  1  S   -0.102467   0.000000   0.154943   0.537353   0.000000
   17  H  1  X    0.000000   0.684945  -0.000000  -0.000000   1.024445
   18  H  1  Y   -0.198245   0.000000   1.563573   1.113762   0.000000
   19  H  1  Z   -0.583956   0.000000  -0.108942   0.009615   0.000000
   20  H  1 XX   -0.158443   0.000000  -0.436902   0.534388   0.000000
   21  H  1 YY    0.828120   0.000000   0.369521   0.232370   0.000000
   22  H  1 ZZ   -0.669677   0.000000   0.067381  -0.766757   0.000000
   23  H  1 XY    0.000000   1.225901  -0.000000  -0.000000   0.788618
   24  H  1 XZ    0.000000  -0.073837  -0.000000  -0.000000   0.881937
   25  H  1 YZ   -0.606745   0.000000  -0.751752  -0.429160   0.000000
   26  H  2  S    0.008940   0.000000   0.001948  -0.009710   0.000000
   27  H  2  S    0.514717   0.000000  -0.066187  -6.290532   0.000000
   28  H  2  S   -1.833904   0.000000  -3.059610  -4.992067   0.000000
   29  H  2  X    0.000000   0.001311  -0.000000  -0.000000   0.073277
   30  H  2  Y    0.006758   0.000000   0.017783  -0.021730   0.000000
   31  H  2  Z    0.013493   0.000000   0.010570  -0.029295   0.000000
   32  H  2  X    0.000000  -0.157437  -0.000000  -0.000000  -1.875917
   33  H  2  Y    0.070980   0.000000   0.223503   2.323497   0.000000
   34  H  2  Z   -0.314791   0.000000  -0.588538   0.224522   0.000000
   35  H  2 XX    0.015009   0.000000   0.000412   0.060661   0.000000
   36  H  2 YY   -0.033856   0.000000   0.002511  -0.094631   0.000000
   37  H  2 ZZ    0.018847   0.000000  -0.002923   0.033970   0.000000
   38  H  2 XY    0.000000  -0.020256  -0.000000  -0.000000   0.026763
   39  H  2 XZ    0.000000  -0.016771  -0.000000  -0.000000   0.005439
   40  H  2 YZ    0.002892   0.000000   0.063711   0.023981   0.000000
   41  H  2  S   -0.102467   0.000000  -0.154943  -0.537353   0.000000
   42  H  2  X    0.000000  -0.684945  -0.000000  -0.000000  -1.024445
   43  H  2  Y    0.198245   0.000000   1.563573   1.113762   0.000000
   44  H  2  Z   -0.583956   0.000000   0.108942  -0.009615   0.000000
   45  H  2 XX   -0.158443   0.000000   0.436902  -0.534388   0.000000
   46  H  2 YY    0.828120   0.000000  -0.369521  -0.232370   0.000000
   47  H  2 ZZ   -0.669677   0.000000  -0.067381   0.766757   0.000000
   48  H  2 XY    0.000000   1.225901  -0.000000  -0.000000   0.788618
   49  H  2 XZ    0.000000   0.073837  -0.000000  -0.000000  -0.881937
   50  H  2 YZ    0.606745   0.000000  -0.751752  -0.429160   0.000000
   51  O  3  S    0.006613   0.000000  -0.000000  -0.000000   0.000000
   52  O  3  S    0.024681   0.000000  -0.000000  -0.000000   0.000000
   53  O  3  S   -0.005987   0.000000  -0.000000  -0.000000   0.000000
   54  O  3  S    0.357940   0.000000  -0.000000   0.000000   0.000000
   55  O  3  X    0.000000   0.000000  -0.000000  -0.000000  -0.000000
   56  O  3  Y    0.000000   0.000000  -0.103598  -0.051619   0.000000
   57  O  3  Z    0.126875   0.000000  -0.000000   0.000000   0.000000
   58  O  3  X    0.000000   0.000000  -0.000000  -0.000000   0.000000
   59  O  3  Y    0.000000   0.000000  -0.215890  -0.014063   0.000000
   60  O  3  Z    0.330981   0.000000  -0.000000   0.000000   0.000000
   61  O  3  X    0.000000  -0.000000  -0.000000  -0.000000  -0.000000
[...]
  100  O  3 XXZ  -0.001419  -0.000000  -0.000000  -0.001633  -0.009989
  101  O  3 YYX   0.000000  -0.000000   0.000704   0.000000  -0.000000
  102  O  3 YYZ   0.000445   0.000000   0.000000   0.005907   0.018827
  103  O  3 ZZX   0.000000   0.000000  -0.001787   0.000000   0.000000
  104  O  3 ZZY   0.000000  -0.001607  -0.000000  -0.000000   0.000000
  105  O  3 XYZ   0.000000   0.000000   0.000000   0.000000   0.000000

                     11         12         13         14         15
                   -0.0265     0.0100     0.0154     0.0323     0.0645
                     A          A          A          A          A   
    1  H  1  S    0.063493  -0.032234   0.037058   0.000000   0.000000
    2  H  1  S    0.039807  -0.824841   0.474232   0.000000   0.000000
    3  H  1  S   -0.929132  -2.528517   2.056887   0.000000   0.000000
    4  H  1  X    0.000000  -0.000000   0.000000   0.001559   0.001093
    5  H  1  Y   -0.005705  -0.006088   0.004714   0.000000  -0.000000
    6  H  1  Z   -0.007781   0.002204   0.000355   0.000000   0.000000
    7  H  1  X    0.000000   0.000000  -0.000000   0.201448  -0.231651
    8  H  1  Y   -0.091482  -0.165848   0.011602   0.000000   0.000000
    9  H  1  Z   -0.113146  -0.080457   0.223483   0.000000   0.000000
   10  H  1 XX    0.003695   0.006950  -0.002519   0.000000  -0.000000
   11  H  1 YY   -0.002480  -0.008347   0.002932   0.000000   0.000000
   12  H  1 ZZ   -0.001215   0.001398  -0.000413   0.000000  -0.000000
   13  H  1 XY    0.000000  -0.000000  -0.000000   0.002682  -0.002722
   14  H  1 XZ    0.000000   0.000000   0.000000   0.000285  -0.004131
   15  H  1 YZ   -0.005522  -0.008050   0.012669   0.000000   0.000000
   16  H  1  S   -2.717969  -2.634789   0.437134   0.000000   0.000000
   17  H  1  X    0.000000   0.000000  -0.000000   1.470250  -1.742335
   18  H  1  Y   -0.666416  -0.066876  -0.384072   0.000000   0.000000
   19  H  1  Z   -0.744014   0.034091   0.892898   0.000000  -0.000000
   20  H  1 XX    0.052163  -0.070214  -0.014771   0.000000  -0.000000
   21  H  1 YY   -0.015715   0.053056  -0.116727   0.000000   0.000000
   22  H  1 ZZ   -0.036447   0.017158   0.131498   0.000000  -0.000000
   23  H  1 XY    0.000000   0.000000  -0.000000   0.168832  -0.253020
   24  H  1 XZ    0.000000   0.000000  -0.000000   0.146761  -0.097693
   25  H  1 YZ   -0.078274   0.025036   0.043391   0.000000  -0.000000
   26  H  2  S   -0.063493   0.032234   0.037058   0.000000   0.000000
   27  H  2  S   -0.039807   0.824841   0.474232   0.000000   0.000000
   28  H  2  S    0.929132   2.528517   2.056887   0.000000   0.000000
   29  H  2  X    0.000000  -0.000000   0.000000  -0.001559   0.001093
   30  H  2  Y   -0.005705  -0.006088  -0.004714   0.000000   0.000000
   31  H  2  Z    0.007781  -0.002204   0.000355   0.000000   0.000000
   32  H  2  X    0.000000   0.000000  -0.000000  -0.201448  -0.231651
   33  H  2  Y   -0.091482  -0.165848  -0.011602   0.000000  -0.000000
   34  H  2  Z    0.113146   0.080457   0.223483   0.000000   0.000000
   35  H  2 XX   -0.003695  -0.006950  -0.002519   0.000000  -0.000000
   36  H  2 YY    0.002480   0.008347   0.002932   0.000000   0.000000
   37  H  2 ZZ    0.001215  -0.001398  -0.000413   0.000000  -0.000000
   38  H  2 XY    0.000000   0.000000   0.000000   0.002682   0.002722
   39  H  2 XZ    0.000000   0.000000   0.000000  -0.000285  -0.004131
   40  H  2 YZ   -0.005522  -0.008050  -0.012669   0.000000  -0.000000
   41  H  2  S    2.717969   2.634789   0.437134   0.000000   0.000000
   42  H  2  X    0.000000   0.000000  -0.000000  -1.470250  -1.742335
   43  H  2  Y   -0.666416  -0.066876   0.384072   0.000000  -0.000000
   44  H  2  Z    0.744014  -0.034091   0.892898   0.000000  -0.000000
   45  H  2 XX   -0.052163   0.070214  -0.014771   0.000000  -0.000000
   46  H  2 YY    0.015715  -0.053056  -0.116727   0.000000   0.000000
   47  H  2 ZZ    0.036447  -0.017158   0.131498   0.000000  -0.000000
   48  H  2 XY   -0.000000  -0.000000   0.000000   0.168832   0.253020
   49  H  2 XZ    0.000000   0.000000  -0.000000  -0.146761  -0.097693
   50  H  2 YZ   -0.078274   0.025036  -0.043391   0.000000   0.000000
   51  O  3  S    0.000000   0.000000   0.014999   0.000000   0.000000
   52  O  3  S    0.000000   0.000000   0.065837   0.000000   0.000000
   53  O  3  S    0.000000   0.000000   0.028285   0.000000   0.000000
   54  O  3  S   -0.000000  -0.000000  -0.638780   0.000000  -0.000000
   55  O  3  X   -0.000000   0.000000  -0.000000   0.000000   0.069030
   56  O  3  Y    0.133314   0.024256  -0.000000   0.000000   0.000000
   57  O  3  Z    0.000000   0.000000   0.015471   0.000000   0.000000
   58  O  3  X   -0.000000   0.000000  -0.000000   0.000000   0.052485
   59  O  3  Y    0.125685  -0.003259   0.000000   0.000000  -0.000000
   60  O  3  Z    0.000000   0.000000   0.050198   0.000000   0.000000
   61  O  3  X   -0.000000  -0.000000   0.000000   0.000000   1.306935
   62  O  3  Y   -0.193046  -1.174737   0.000000   0.000000  -0.000000
   63  O  3  Z    0.000000   0.000000  -0.000481   0.000000   0.000000
   64  O  3 XX    0.000000  -0.000000  -0.004201   0.000000  -0.000000
   65  O  3 YY    0.000000   0.000000   0.008975   0.000000   0.000000
   66  O  3 ZZ    0.000000   0.000000  -0.004774   0.000000   0.000000
   67  O  3 XY    0.000000   0.000000   0.000000  -0.008838   0.000000
   68  O  3 XZ    0.000000   0.000000   0.000000   0.000000   0.008581
   69  O  3 YZ    0.004950  -0.007837   0.000000   0.000000   0.000000
   70  O  3 XX    0.000000   0.000000   0.013355   0.000000   0.000000
   71  O  3 YY   -0.000000  -0.000000  -0.012926   0.000000  -0.000000
   72  O  3 ZZ   -0.000000  -0.000000  -0.000429   0.000000  -0.000000
   73  O  3 XY    0.000000   0.000000   0.000000  -0.011715   0.000000
   74  O  3 XZ    0.000000  -0.000000  -0.000000  -0.000000  -0.000454
   75  O  3 YZ    0.048321   0.025919  -0.000000   0.000000   0.000000
   76  O  3 XXX   0.000000   0.000000   0.000000   0.000000   0.008780
   77  O  3 YYY   0.000718  -0.000302   0.000000   0.000000   0.000000
   78  O  3 ZZZ  -0.000000  -0.000000   0.001956   0.000000  -0.000000
   79  O  3 XXY   0.004098  -0.002661  -0.000000   0.000000   0.000000
   80  O  3 XXZ   0.000000   0.000000  -0.001256   0.000000   0.000000
   81  O  3 YYX   0.000000   0.000000   0.000000   0.000000  -0.005909
   82  O  3 YYZ   0.000000   0.000000  -0.001368   0.000000   0.000000
   83  O  3 ZZX  -0.000000  -0.000000   0.000000  -0.000000  -0.005870
   84  O  3 ZZY  -0.005061   0.003066   0.000000   0.000000  -0.000000
   85  O  3 XYZ   0.000000   0.000000   0.000000   0.008041   0.000000
   86  O  3  S   -0.000000  -0.000000  -4.687067   0.000000  -0.000000
   87  O  3  X    0.000000  -0.000000   0.000000  -0.000000   2.209442
   88  O  3  Y   -0.845957  -3.111775   0.000000   0.000000  -0.000000
   89  O  3  Z    0.000000   0.000000  -0.293498   0.000000   0.000000
   90  O  3 XX    0.000000   0.000000   0.133590   0.000000   0.000000
   91  O  3 YY   -0.000000  -0.000000  -0.474850   0.000000   0.000000
   92  O  3 ZZ   -0.000000  -0.000000   0.341261   0.000000  -0.000000
   93  O  3 XY    0.000000   0.000000   0.000000   0.428674   0.000000
   94  O  3 XZ    0.000000   0.000000  -0.000000  -0.000000  -0.322918
   95  O  3 YZ   -0.017667   0.540868  -0.000000   0.000000   0.000000
   96  O  3 XXX   0.000000   0.000000  -0.000000  -0.000000  -0.059788
   97  O  3 YYY  -0.011194  -0.001771  -0.000000   0.000000   0.000000
   98  O  3 ZZZ   0.000000   0.000000  -0.031735   0.000000   0.000000
   99  O  3 XXY   0.004339   0.035484  -0.000000   0.000000   0.000000
  100  O  3 XXZ  -0.000000  -0.000000   0.001406   0.000000  -0.000000
  101  O  3 YYX  -0.000000  -0.000000   0.000000   0.000000   0.055387
  102  O  3 YYZ   0.000000   0.000000   0.041171   0.000000   0.000000
  103  O  3 ZZX   0.000000   0.000000   0.000000   0.000000   0.024826
  104  O  3 ZZY   0.010679  -0.033108   0.000000   0.000000   0.000000
  105  O  3 XYZ   0.000000   0.000000   0.000000  -0.055410  -0.000000

     ----------------------------------------------------------------
     PROPERTY VALUES FOR THE ROHF  SELF-CONSISTENT FIELD WAVEFUNCTION
     ----------------------------------------------------------------

          -----------------
          ENERGY COMPONENTS
          -----------------

         WAVEFUNCTION NORMALIZATION =       1.0000000000

                ONE ELECTRON ENERGY =    -117.8052845450
                TWO ELECTRON ENERGY =      33.1884737956
           NUCLEAR REPULSION ENERGY =       8.9630561629
                                      ------------------
                       TOTAL ENERGY =     -75.6537545865

 ELECTRON-ELECTRON POTENTIAL ENERGY =      33.1884737956
  NUCLEUS-ELECTRON POTENTIAL ENERGY =    -193.4205829053
   NUCLEUS-NUCLEUS POTENTIAL ENERGY =       8.9630561629
                                      ------------------
             TOTAL POTENTIAL ENERGY =    -151.2690529468
               TOTAL KINETIC ENERGY =      75.6152983603
                 VIRIAL RATIO (V/T) =       2.0005085773

          ---------------------------------------
          MULLIKEN AND LOWDIN POPULATION ANALYSES
          ---------------------------------------

     ATOMIC MULLIKEN POPULATION IN EACH MOLECULAR ORBITAL

                      1          2          3          4          5

                  2.000000   2.000000   2.000000   2.000000   1.000000

    1             0.000722   0.129977   0.330241   0.121571   0.018049
    2             0.000722   0.129977   0.330241   0.121571   0.018049
    3             1.998556   1.740046   1.339518   1.756858   0.963903

          MULLIKEN SPHERICAL HARMONIC POPULATIONS
       ATOM           S       P       D      F      G      H      I    TOTAL
    1 H             0.26    0.04    0.01   0.00   0.00   0.00   0.00    0.31
    2 H             0.26    0.04    0.01   0.00   0.00   0.00   0.00    0.31
    3 O             1.95    2.42    0.01   0.00   0.00   0.00   0.00    4.38

          MULLIKEN SPHERICAL HARMONIC POPULATIONS
       ATOM           S       P       D      F      G      H      I    TOTAL
    1 H             0.26    0.03    0.01   0.00   0.00   0.00   0.00    0.29
    2 H             0.26    0.03    0.01   0.00   0.00   0.00   0.00    0.29
    3 O             1.95    1.45    0.01   0.00   0.00   0.00   0.00    3.42

     ATOMIC SPIN POPULATION (ALPHA MINUS BETA)
       ATOM         MULL.POP.                    LOW.POP.
    1 H             0.018049                     0.071036
    2 H             0.018049                     0.071036
    3 O             0.963903                     0.857928

               ----- POPULATIONS IN EACH AO -----
                             MULLIKEN      LOWDIN
              1  H  1  S      0.21663     0.14929
              2  H  1  S      0.33672     0.12964
              3  H  1  S     -0.04082     0.03925
              4  H  1  X      0.00164     0.00268
              5  H  1  Y      0.01118     0.02102
              6  H  1  Z      0.00641     0.01387
              7  H  1  X      0.01077     0.02195
              8  H  1  Y      0.02314     0.06520
              9  H  1  Z      0.01455     0.06230
             10  H  1 XX      0.00132     0.03532
             11  H  1 YY      0.00145     0.09115
             12  H  1 ZZ      0.00098     0.06195
             13  H  1 XY      0.00046     0.00583
             14  H  1 XZ      0.00253     0.00256
             15  H  1 YZ      0.00000     0.01895
             16  H  1  S     -0.00121     0.00426
             17  H  1  X     -0.00019     0.01065
             18  H  1  Y      0.00319     0.03787
             19  H  1  Z     -0.00165     0.03427
             20  H  1 XX      0.00340     0.00513
             21  H  1 YY      0.00255     0.05587
             22  H  1 ZZ      0.00303     0.03015
             23  H  1 XY      0.00135     0.01874
             24  H  1 XZ      0.00311     0.00862
             25  H  1 YZ      0.00000     0.04934
             26  H  2  S      0.21663     0.14929
             27  H  2  S      0.33672     0.12964
             28  H  2  S     -0.04082     0.03925
             29  H  2  X      0.00164     0.00268
             30  H  2  Y      0.01118     0.02102
             31  H  2  Z      0.00641     0.01387
             32  H  2  X      0.01077     0.02195
             33  H  2  Y      0.02314     0.06520
             34  H  2  Z      0.01455     0.06230
             35  H  2 XX      0.00132     0.03532
             36  H  2 YY      0.00145     0.09115
             37  H  2 ZZ      0.00098     0.06195
             38  H  2 XY      0.00046     0.00583
             39  H  2 XZ      0.00253     0.00256
             40  H  2 YZ      0.00000     0.01895
             41  H  2  S     -0.00121     0.00426
             42  H  2  X     -0.00019     0.01065
             43  H  2  Y      0.00319     0.03787
             44  H  2  Z     -0.00165     0.03427
             45  H  2 XX      0.00340     0.00513
             46  H  2 YY      0.00255     0.05587
             47  H  2 ZZ      0.00303     0.03015
             48  H  2 XY      0.00135     0.01874
             49  H  2 XZ      0.00311     0.00862
             50  H  2 YZ      0.00000     0.04934
             51  O  3  S      1.94928     1.55157
             52  O  3  S      1.06142     0.51526
             53  O  3  S      0.24843     0.34066
             54  O  3  S      0.59812     0.16587
             55  O  3  X      0.30649     0.28148
             56  O  3  Y      0.40793     0.34670
             57  O  3  Z      0.49954     0.44630
             58  O  3  X      0.48705     0.19499
             59  O  3  Y      0.69493     0.29462
             60  O  3  Z      0.81654     0.34834
             61  O  3  X      0.16929     0.06565
             62  O  3  Y      0.21614     0.14091
             63  O  3  Z      0.26422     0.14817
             64  O  3 XX      0.00026     0.11874
             65  O  3 YY      0.00045     0.11792
             66  O  3 ZZ      0.00000     0.11720
             67  O  3 XY      0.00014     0.00000
             68  O  3 XZ      0.00196     0.00009
             69  O  3 YZ      0.00000     0.00109
             70  O  3 XX      0.00155     0.07376
             71  O  3 YY      0.00167     0.09136
             72  O  3 ZZ      0.00000     0.08211
             73  O  3 XY      0.00070     0.00000
             74  O  3 XZ      0.01129     0.00004
             75  O  3 YZ      0.00000     0.01663
             76  O  3 XXX    -0.00001     0.12530
             77  O  3 YYY     0.00028     0.17884
             78  O  3 ZZZ     0.00001     0.20764
             79  O  3 XXY     0.00010     0.07164
             80  O  3 XXZ    -0.00004     0.09206
             81  O  3 YYX     0.00000     0.05160
             82  O  3 YYZ     0.00010     0.10881
             83  O  3 ZZX     0.00000     0.05166
             84  O  3 ZZY     0.00000     0.08711
             85  O  3 XYZ     0.00000    -0.00000
             86  O  3  S      0.05231     0.03296
             87  O  3  X      0.00005     0.00512
             88  O  3  Y      0.00735     0.01483
             89  O  3  Z      0.00277     0.01544
             90  O  3 XX      0.00033     0.00480
             91  O  3 YY     -0.00164     0.01462
             92  O  3 ZZ      0.00000     0.00837
             93  O  3 XY      0.00021     0.00000
             94  O  3 XZ     -0.00044     0.00000
             95  O  3 YZ      0.00000     0.01184
             96  O  3 XXX    -0.00004     0.04596
             97  O  3 YYY    -0.00018     0.11325
             98  O  3 ZZZ     0.00000     0.10005
             99  O  3 XXY     0.00001     0.03460
            100  O  3 XXZ     0.00021     0.04201
            101  O  3 YYX     0.00000     0.01780
            102  O  3 YYZ     0.00009     0.07077
            103  O  3 ZZX     0.00000     0.01823
            104  O  3 ZZY     0.00000     0.06345
            105  O  3 XYZ     0.00000    -0.00000

          ----- MULLIKEN ATOMIC OVERLAP POPULATIONS -----
          (OFF-DIAGONAL ELEMENTS NEED TO BE MULTIPLIED BY 2)

             1           2           3

    1    0.3336961
    2    0.0323540   0.3336961
    3    0.2345095   0.2345095   7.3298617

          TOTAL MULLIKEN AND LOWDIN ATOMIC POPULATIONS
       ATOM         MULL.POP.    CHARGE          LOW.POP.     CHARGE
    1 H             0.600560    0.399440         0.975878    0.024122
    2 H             0.600560    0.399440         0.975878    0.024122
    3 O             7.798881    0.201119         7.048245    0.951755

          MULLIKEN SPHERICAL HARMONIC POPULATIONS
       ATOM           S       P       D      F      G      H      I    TOTAL
    1 H             0.51    0.07    0.02   0.00   0.00   0.00   0.00    0.60
    2 H             0.51    0.07    0.02   0.00   0.00   0.00   0.00    0.60
    3 O             3.91    3.87    0.02   0.00   0.00   0.00   0.00    7.80

          -------------------------------
          BOND ORDER AND VALENCE ANALYSIS     BOND ORDER THRESHOLD=0.050
          -------------------------------

                   BOND                       BOND                       BOND
  ATOM PAIR DIST  ORDER      ATOM PAIR DIST  ORDER      ATOM PAIR DIST  ORDER
    1   3  0.980  0.830        2   3  0.980  0.830

                       TOTAL       BONDED        FREE
      ATOM            VALENCE     VALENCE     VALENCE
    1 H                 0.865       0.864       0.000
    2 H                 0.865       0.864       0.000
    3 O                 2.589       1.660       0.929

          -----------------------------------------
          ATOMIC SPIN DENSITY AT THE NUCLEUS (A.U.)
          -----------------------------------------
                            SPIN DENS    ALPHA DENS     BETA DENS
    1  H            1.0     0.0000000       0.17208       0.17208
    2  H            1.0     0.0000000       0.17208       0.17208
    3  O            8.0     0.0000000     149.63225     149.63225

          ---------------------
          ELECTROSTATIC MOMENTS
          ---------------------

 POINT   1           X           Y           Z (BOHR)    CHARGE
                 0.000000    0.000000    0.892291        1.00 (A.U.)
         DX          DY          DZ         /D/  (DEBYE)
     0.000000   -0.000000   -2.352055    2.352055
 ...... END OF PROPERTY EVALUATION ......
 STEP CPU TIME =     0.03 TOTAL CPU TIME =       28.9 (    0.5 MIN)
 TOTAL WALL CLOCK TIME=       29.0 SECONDS, CPU UTILIZATION IS  99.41%
  $VIB   
          IVIB=   0 IATOM=   0 ICOORD=   0 E=      -75.6537545865
  0.000000000E+00 0.000000000E+00 0.000000000E+00 0.000000000E+00 0.000000000E+00
  0.000000000E+00 0.000000000E+00 0.000000000E+00 0.000000000E+00
  8.425427948E-11-1.500990029E-11-2.352054821E+00
 ......END OF GEOMETRY SEARCH......
 STEP CPU TIME =     0.00 TOTAL CPU TIME =       28.9 (    0.5 MIN)
 TOTAL WALL CLOCK TIME=       29.0 SECONDS, CPU UTILIZATION IS  99.41%
               992231  WORDS OF DYNAMIC MEMORY USED
 EXECUTION OF GAMESS TERMINATED NORMALLY Tue Mar  8 19:08:40 2016
 DDI: 263640 bytes (0.3 MB / 0 MWords) used by master data server.

 ----------------------------------------
 CPU timing information for all processes
 ========================================
 0: 27.456 + 1.416 = 28.872
 ----------------------------------------
 ddikick.x: exited gracefully.
----- accounting info -----
Files used on the master node Clevo were:
-rw-r--r-- 1 sagar sagar   412001 Mar  8 19:08 /tmp/H2O_ion_ROHF_augccpVTZ_geometry.dat
-rw-r--r-- 1 sagar sagar      202 Mar  8 19:08 /tmp/H2O_ion_ROHF_augccpVTZ_geometry.F05
-rw-r--r-- 1 sagar sagar 87307760 Mar  8 19:08 /tmp/H2O_ion_ROHF_augccpVTZ_geometry.F08
-rw-r--r-- 1 sagar sagar  2781200 Mar  8 19:08 /tmp/H2O_ion_ROHF_augccpVTZ_geometry.F10
Tue Mar  8 19:08:43 WET 2016
0.082u 0.055s 0:32.19 0.4%	0+0k 0+24io 0pf+0w
