----- GAMESS execution script 'rungms' -----
This job is running on host Clevo
under operating system Linux at Tue Mar 8 19:07:53 WET 2016
Available scratch disk space (Kbyte units) at beginning of the job is
Filesystem                                             1K-blocks     Used Available Use% Mounted on
/dev/disk/by-uuid/c2905ecd-da6a-4deb-abcc-9980c215dfc9  34319120 18843208  13709512  58% /
GAMESS temporary binary files will be written to /tmp
GAMESS supplementary output files will be written to .
Copying input file H2O_ion_ROHF_ccpVTZ_geometry.inp to your run's scratch directory...

 Distributed Data Interface kickoff program.
 Initiating 1 compute processes on 1 nodes to run the following command:
 /home/sagar/gamess/gamess.01.x H2O_ion_ROHF_ccpVTZ_geometry 

          ******************************************************
          *         GAMESS VERSION =  5 DEC 2014 (R1)          *
          *             FROM IOWA STATE UNIVERSITY             *
          * M.W.SCHMIDT, K.K.BALDRIDGE, J.A.BOATZ, S.T.ELBERT, *
          *   M.S.GORDON, J.H.JENSEN, S.KOSEKI, N.MATSUNAGA,   *
          *          K.A.NGUYEN, S.J.SU, T.L.WINDUS,           *
          *       TOGETHER WITH M.DUPUIS, J.A.MONTGOMERY       *
          *         J.COMPUT.CHEM.  14, 1347-1363(1993)        *
          **************** 64 BIT LINUX VERSION ****************

  SINCE 1993, STUDENTS AND POSTDOCS WORKING AT IOWA STATE UNIVERSITY
  AND ALSO IN THEIR VARIOUS JOBS AFTER LEAVING ISU HAVE MADE IMPORTANT
  CONTRIBUTIONS TO THE CODE:
     IVANA ADAMOVIC, CHRISTINE AIKENS, YURI ALEXEEV, POOJA ARORA,
     ANDREY ASADCHEV, ROB BELL, PRADIPTA BANDYOPADHYAY, JONATHAN BENTZ,
     BRETT BODE, KURT BRORSEN, CALEB CARLIN, GALINA CHABAN, WEI CHEN,
     CHEOL HO CHOI, PAUL DAY, ALBERT DEFUSCO, NUWAN DESILVA, TIM DUDLEY,
     DMITRI FEDOROV, GRAHAM FLETCHER, MARK FREITAG, KURT GLAESEMANN,
     DAN KEMP, GRANT MERRILL, NORIYUKI MINEZAWA, JONATHAN MULLIN,
     TAKESHI NAGATA, SEAN NEDD, HEATHER NETZLOFF, BOSILJKA NJEGIC, RYAN OLSON,
     MIKE PAK, SPENCER PRUITT, LUKE ROSKOP, JIM SHOEMAKER, LYUDMILA SLIPCHENKO,
     TONY SMITH, SAROM SOK, JIE SONG, TETSUYA TAKETSUGU, SIMON WEBB,
     PENG XU, SOOHAENG YOO, FEDERICO ZAHARIEV

  ADDITIONAL CODE HAS BEEN PROVIDED BY COLLABORATORS IN OTHER GROUPS:
     IOWA STATE UNIVERSITY:
          JOE IVANIC, AARON WEST, LAIMUTIS BYTAUTAS, KLAUS RUEDENBERG
     UNIVERSITY OF TOKYO: KIMIHIKO HIRAO, TAKAHITO NAKAJIMA,
          TAKAO TSUNEDA, MUNEAKI KAMIYA, SUSUMU YANAGISAWA,
          KIYOSHI YAGI, MAHITO CHIBA, SEIKEN TOKURA, NAOAKI KAWAKAMI
     UNIVERSITY OF AARHUS: FRANK JENSEN
     UNIVERSITY OF IOWA: VISVALDAS KAIRYS, HUI LI
     NATIONAL INST. OF STANDARDS AND TECHNOLOGY: WALT STEVENS, DAVID GARMER
     UNIVERSITY OF PISA: BENEDETTA MENNUCCI, JACOPO TOMASI
     UNIVERSITY OF MEMPHIS: HENRY KURTZ, PRAKASHAN KORAMBATH
     UNIVERSITY OF ALBERTA: TOBY ZENG, MARIUSZ KLOBUKOWSKI
     UNIVERSITY OF NEW ENGLAND: MARK SPACKMAN
     MIE UNIVERSITY: HIROAKI UMEDA
     NAT. INST. OF ADVANCED INDUSTRIAL SCIENCE AND TECHNOLOGY: KAZUO KITAURA
     MICHIGAN STATE UNIVERSITY:
          KAROL KOWALSKI, MARTA WLOCH, JEFFREY GOUR, JESSE LUTZ,
          WEI LI, PIOTR PIECUCH
     UNIVERSITY OF SILESIA: MONIKA MUSIAL, STANISLAW KUCHARSKI
     FACULTES UNIVERSITAIRES NOTRE-DAME DE LA PAIX:
          OLIVIER QUINET, BENOIT CHAMPAGNE
     UNIVERSITY OF CALIFORNIA - SANTA BARBARA: BERNARD KIRTMAN
     INSTITUTE FOR MOLECULAR SCIENCE:
          KAZUYA ISHIMURA, MICHIO KATOUDA, AND SHIGERU NAGASE
     UNIVERSITY OF NOTRE DAME: ANNA POMOGAEVA, DAN CHIPMAN
     KYUSHU UNIVERSITY:
          HARUYUKI NAKANO,
          FENG LONG GU, JACEK KORCHOWIEC, MARCIN MAKOWSKI, AND YURIKO AOKI,
          HIROTOSHI MORI AND EISAKU MIYOSHI
     PENNSYLVANIA STATE UNIVERSITY:
          TZVETELIN IORDANOV, CHET SWALINA, JONATHAN SKONE,
          SHARON HAMMES-SCHIFFER
     WASEDA UNIVERSITY:
          MASATO KOBAYASHI, TOMOKO AKAMA, TSUGUKI TOUMA,
          TAKESHI YOSHIKAWA, YASUHIRO IKABATA, HIROMI NAKAI
     NANJING UNIVERSITY: SHUHUA LI
     UNIVERSITY OF NEBRASKA:
          PEIFENG SU, DEJUN SI, NANDUN THELLAMUREGE, YALI WANG, HUI LI
     UNIVERSITY OF ZURICH: ROBERTO PEVERATI, KIM BALDRIDGE
     N. COPERNICUS UNIVERSITY AND JACKSON STATE UNIVERSITY:
          MARIA BARYSZ
     UNIVERSITY OF COPENHAGEN: CASPER STEINMANN
     TOKYO INSTITUTE OF TECHNOLOGY: HIROYA NAKATA
     NAGOYA UNIVERSITY: YOSHIO NISHIMOTO, STEPHAN IRLE

 EXECUTION OF GAMESS BEGUN Tue Mar  8 19:07:53 2016

            ECHO OF THE FIRST FEW INPUT CARDS -
 INPUT CARD> $CONTRL SCFTYP=ROHF RUNTYP=OPTIMIZE ISPHER=1 ICHARG=1 MULT=2 $END              
 INPUT CARD> $STATPT OPTTOL=1E-12 NSTEP=1000 $END                                           
 INPUT CARD> $BASIS GBASIS=CCT $END                                                         
 INPUT CARD> $DATA                                                                          
 INPUT CARD>H2O                                                                             
 INPUT CARD>C1                                                                              
 INPUT CARD> H 1 0.0 -1.0 0.0                                                               
 INPUT CARD> H 1 0.0 1.0 0.0                                                                
 INPUT CARD> O 8 0.0 0.0 0.5                                                                
 INPUT CARD> $END                                                                           
    1000000 WORDS OF MEMORY AVAILABLE

     BASIS OPTIONS
     -------------
     GBASIS=CCT          IGAUSS=       0      POLAR=NONE    
     NDFUNC=       0     NFFUNC=       0     DIFFSP=       F
     NPFUNC=       0      DIFFS=       F     BASNAM=        


     RUN TITLE
     ---------
 H2O                                                                             

 THE POINT GROUP OF THE MOLECULE IS C1      
 THE ORDER OF THE PRINCIPAL AXIS IS     0

 ATOM      ATOMIC                      COORDINATES (BOHR)
           CHARGE         X                   Y                   Z
 H           1.0     0.0000000000       -1.8897259877        0.0000000000
 H           1.0     0.0000000000        1.8897259877        0.0000000000
 O           8.0     0.0000000000        0.0000000000        0.9448629939

          INTERNUCLEAR DISTANCES (ANGS.)
          ------------------------------

                1 H          2 H          3 O     

   1 H       0.0000000    2.0000000 *  1.1180340 *
   2 H       2.0000000 *  0.0000000    1.1180340 *
   3 O       1.1180340 *  1.1180340 *  0.0000000  

  * ... LESS THAN  3.000


     ATOMIC BASIS SET
     ----------------
 THE CONTRACTED PRIMITIVE FUNCTIONS HAVE BEEN UNNORMALIZED
 THE CONTRACTED BASIS FUNCTIONS ARE NOW NORMALIZED TO UNITY

  SHELL TYPE  PRIMITIVE        EXPONENT          CONTRACTION COEFFICIENT(S)

 H         

      1   S       1            33.8700000    0.025494863235
      1   S       2             5.0950000    0.190362765893
      1   S       3             1.1590000    0.852162022245

      2   S       4             0.3258000    1.000000000000

      3   S       5             0.1027000    1.000000000000

      4   P       6             1.4070000    1.000000000000

      5   P       7             0.3880000    1.000000000000

      6   D       8             1.0570000    1.000000000000

 H         

      7   S       9            33.8700000    0.025494863235
      7   S      10             5.0950000    0.190362765893
      7   S      11             1.1590000    0.852162022245

      8   S      12             0.3258000    1.000000000000

      9   S      13             0.1027000    1.000000000000

     10   P      14             1.4070000    1.000000000000

     11   P      15             0.3880000    1.000000000000

     12   D      16             1.0570000    1.000000000000

 O         

     13   S      17         15330.0000000    0.000520198307
     13   S      18          2299.0000000    0.004023344781
     13   S      19           522.4000000    0.020729083329
     13   S      20           147.3000000    0.081082327080
     13   S      21            47.5500000    0.236226352118
     13   S      22            16.7600000    0.443518209420
     13   S      23             6.2070000    0.358670588689
     13   S      24             0.6882000   -0.008349797237

     14   S      25         15330.0000000   -0.000197236012
     14   S      26          2299.0000000   -0.001535010700
     14   S      27           522.4000000   -0.007951183914
     14   S      28           147.3000000   -0.032113452892
     14   S      29            47.5500000   -0.100269643049
     14   S      30            16.7600000   -0.234047111838
     14   S      31             6.2070000   -0.301410927756
     14   S      32             0.6882000    1.034919649508

     15   S      33             1.7520000    1.000000000000

     16   S      34             0.2384000    1.000000000000

     17   P      35            34.4600000    0.041163489568
     17   P      36             7.7490000    0.257762835858
     17   P      37             2.2800000    0.802419274427

     18   P      38             0.7156000    1.000000000000

     19   P      39             0.2140000    1.000000000000

     20   D      40             2.3140000    1.000000000000

     21   D      41             0.6450000    1.000000000000

     22   F      42             1.4280000    1.000000000000

 TOTAL NUMBER OF BASIS SET SHELLS             =   22
 NUMBER OF CARTESIAN GAUSSIAN BASIS FUNCTIONS =   65
 NOTE: THIS RUN WILL RESTRICT THE MO VARIATION SPACE TO SPHERICAL HARMONICS.
 THE NUMBER OF ORBITALS KEPT IN THE VARIATIONAL SPACE WILL BE PRINTED LATER.
 NUMBER OF ELECTRONS                          =    9
 CHARGE OF MOLECULE                           =    1
 SPIN MULTIPLICITY                            =    2
 NUMBER OF OCCUPIED ORBITALS (ALPHA)          =    5
 NUMBER OF OCCUPIED ORBITALS (BETA )          =    4
 TOTAL NUMBER OF ATOMS                        =    3
 THE NUCLEAR REPULSION ENERGY IS        7.8375569539

     $CONTRL OPTIONS
     ---------------
 SCFTYP=ROHF         RUNTYP=OPTIMIZE     EXETYP=RUN     
 MPLEVL=       0     CITYP =NONE         CCTYP =NONE         VBTYP =NONE    
 DFTTYP=NONE         TDDFT =NONE    
 MULT  =       2     ICHARG=       1     NZVAR =       0     COORD =UNIQUE  
 PP    =NONE         RELWFN=NONE         LOCAL =NONE         NUMGRD=       F
 ISPHER=       1     NOSYM =       0     MAXIT =      30     UNITS =ANGS    
 PLTORB=       F     MOLPLT=       F     AIMPAC=       F     FRIEND=        
 NPRINT=       7     IREST =       0     GEOM  =INPUT   
 NORMF =       0     NORMP =       0     ITOL  =      20     ICUT  =       9
 INTTYP=BEST         GRDTYP=BEST         QMTTOL= 1.0E-06

     $SYSTEM OPTIONS
     ---------------
  REPLICATED MEMORY=     1000000 WORDS (ON EVERY NODE).
 DISTRIBUTED MEMDDI=           0 MILLION WORDS IN AGGREGATE,
 MEMDDI DISTRIBUTED OVER   1 PROCESSORS IS           0 WORDS/PROCESSOR.
 TOTAL MEMORY REQUESTED ON EACH PROCESSOR=     1000000 WORDS.
 TIMLIM=      525600.00 MINUTES, OR     365.0 DAYS.
 PARALL= F  BALTYP=  DLB     KDIAG=    0  COREFL= F
 MXSEQ2=     300 MXSEQ3=     150  mem10=         0

          ----------------
          PROPERTIES INPUT
          ----------------

     MOMENTS            FIELD           POTENTIAL          DENSITY
 IEMOM =       1   IEFLD =       0   IEPOT =       0   IEDEN =       0
 WHERE =COMASS     WHERE =NUCLEI     WHERE =NUCLEI     WHERE =NUCLEI  
 OUTPUT=BOTH       OUTPUT=BOTH       OUTPUT=BOTH       OUTPUT=BOTH    
 IEMINT=       0   IEFINT=       0                     IEDINT=       0
                                                       MORB  =       0
          EXTRAPOLATION IN EFFECT
          SOSCF IN EFFECT
 ORBITAL PRINTING OPTION: NPREO=     1    65     2     1

     -------------------------------
     INTEGRAL TRANSFORMATION OPTIONS
     -------------------------------
     NWORD  =            0
     CUTOFF = 1.0E-09     MPTRAN =       0
     DIRTRF =       F     AOINTS =DUP     

          ----------------------
          INTEGRAL INPUT OPTIONS
          ----------------------
 NOPK  =       1 NORDER=       0 SCHWRZ=       F

     ------------------------------------------
     THE POINT GROUP IS C1 , NAXIS= 0, ORDER= 1
     ------------------------------------------

 -- VARIATIONAL SPACE WILL BE RESTRICTED TO PURE SPHERICAL HARMONICS ONLY --
 AFTER EXCLUDING CONTAMINANT COMBINATIONS FROM THE CARTESIAN GAUSSIAN BASIS
 SET, THE NUMBER OF SPHERICAL HARMONICS KEPT IN THE VARIATION SPACE IS   58

     DIMENSIONS OF THE SYMMETRY SUBSPACES ARE
 A   =   58

 ..... DONE SETTING UP THE RUN .....
 STEP CPU TIME =     0.01 TOTAL CPU TIME =        0.0 (    0.0 MIN)
 TOTAL WALL CLOCK TIME=        0.0 SECONDS, CPU UTILIZATION IS 100.00%


          -----------------------------
          STATIONARY POINT LOCATION RUN
          -----------------------------

 OBTAINING INITIAL HESSIAN, HESS=GUESS   
 CARTESIAN COORDINATE OPTIMIZATION USING BADGER'S RULE FORCE CONSTANT GUESS

          PARAMETERS CONTROLLING GEOMETRY SEARCH ARE
          METHOD =QA                  UPHESS =BFGS    
          NNEG   =         0          NFRZ   =         0
          NSTEP  =      1000          IFOLOW =         1
          HESS   =GUESS               RESTAR =         F
          IHREP  =         0          HSSEND =         F
          NPRT   =         0          NPUN   =         0
          OPTTOL = 1.000E-12          RMIN   = 1.500E-03
          RMAX   = 1.000E-01          RLIM   = 7.000E-02
          DXMAX  = 3.000E-01          PURIFY =         F
          MOVIE  =         F          TRUPD  =         T
          TRMAX  = 5.000E-01          TRMIN  = 5.000E-02
          ITBMAT =         5          STPT   =         F
          STSTEP = 1.000E-02          PROJCT=          T

 BEGINNING GEOMETRY SEARCH POINT NSERCH=   0 ...

 COORDINATES OF ALL ATOMS ARE (ANGS)
   ATOM   CHARGE       X              Y              Z
 ------------------------------------------------------------
 H           1.0   0.0000000000  -1.0000000000   0.0000000000
 H           1.0   0.0000000000   1.0000000000   0.0000000000
 O           8.0   0.0000000000   0.0000000000   0.5000000000

          ********************
          1 ELECTRON INTEGRALS
          ********************
 ...... END OF ONE-ELECTRON INTEGRALS ......
 STEP CPU TIME =     0.00 TOTAL CPU TIME =        0.0 (    0.0 MIN)
 TOTAL WALL CLOCK TIME=        0.0 SECONDS, CPU UTILIZATION IS  50.00%

          -------------
          GUESS OPTIONS
          -------------
          GUESS =HUCKEL            NORB  =       0          NORDER=       0
          MIX   =       F          PRTMO =       F          PUNMO =       F
          TOLZ  = 1.0E-08          TOLE  = 1.0E-05
          SYMDEN=       F          PURIFY=       F

 INITIAL GUESS ORBITALS GENERATED BY HUCKEL   ROUTINE.
 HUCKEL GUESS REQUIRES     33019 WORDS.

 STATISTICS FOR GENERATION OF SYMMETRY ORBITAL -Q- MATRIX
 NUMBER OF CARTESIAN ATOMIC ORBITALS=         65
 NUMBER OF SPHERICAL CONTAMINANTS DROPPED=     7
 NUMBER OF LINEARLY DEPENDENT MOS DROPPED=     0
 TOTAL NUMBER OF MOS IN VARIATION SPACE=      58

 SYMMETRIES FOR INITIAL GUESS ORBITALS FOLLOW.  ALPHA SET(S).
     5 ORBITALS ARE OCCUPIED (    1 CORE ORBITALS).
     2=A        3=A        4=A        5=A        6=A        7=A        8=A   
     9=A       10=A       11=A       12=A       13=A       14=A       15=A   

 SYMMETRIES FOR INITIAL GUESS ORBITALS FOLLOW.   BETA SET(S).
     4 ORBITALS ARE OCCUPIED (    1 CORE ORBITALS).
     2=A        3=A        4=A        5=A        6=A        7=A        8=A   
     9=A       10=A       11=A       12=A       13=A       14=A   
 ...... END OF INITIAL ORBITAL SELECTION ......
 STEP CPU TIME =     0.00 TOTAL CPU TIME =        0.0 (    0.0 MIN)
 TOTAL WALL CLOCK TIME=        0.0 SECONDS, CPU UTILIZATION IS  50.00%

                    ----------------------
                    AO INTEGRAL TECHNOLOGY
                    ----------------------
     S,P,L SHELL ROTATED AXIS INTEGRALS, REPROGRAMMED BY
        KAZUYA ISHIMURA (IMS) AND JOSE SIERRA (SYNSTAR).
     S,P,D,L SHELL ROTATED AXIS INTEGRALS PROGRAMMED BY
        KAZUYA ISHIMURA (INSTITUTE FOR MOLECULAR SCIENCE).
     S,P,D,F,G SHELL TO TOTAL QUARTET ANGULAR MOMENTUM SUM 5,
        ERIC PROGRAM BY GRAHAM FLETCHER (ELORET AND NASA ADVANCED
        SUPERCOMPUTING DIVISION, AMES RESEARCH CENTER).
     S,P,D,F,G,L SHELL GENERAL RYS QUADRATURE PROGRAMMED BY
        MICHEL DUPUIS (PACIFIC NORTHWEST NATIONAL LABORATORY).

          --------------------
          2 ELECTRON INTEGRALS
          --------------------

 THE -PK- OPTION IS OFF, THE INTEGRALS ARE NOT IN SUPERMATRIX FORM.
 STORING   15000 INTEGRALS/RECORD ON DISK, USING 12 BYTES/INTEGRAL.
 TWO ELECTRON INTEGRAL EVALUATION REQUIRES   99353 WORDS OF MEMORY.
 II,JST,KST,LST =  1  1  1  1 NREC =         1 INTLOC =    1
 II,JST,KST,LST =  2  1  1  1 NREC =         1 INTLOC =    2
 II,JST,KST,LST =  3  1  1  1 NREC =         1 INTLOC =    7
 II,JST,KST,LST =  4  1  1  1 NREC =         1 INTLOC =   22
 II,JST,KST,LST =  5  1  1  1 NREC =         1 INTLOC =   67
 II,JST,KST,LST =  6  1  1  1 NREC =         1 INTLOC =  214
 II,JST,KST,LST =  7  1  1  1 NREC =         1 INTLOC = 1189
 II,JST,KST,LST =  8  1  1  1 NREC =         1 INTLOC = 1867
 II,JST,KST,LST =  9  1  1  1 NREC =         1 INTLOC = 2713
 II,JST,KST,LST = 10  1  1  1 NREC =         1 INTLOC = 3757
 II,JST,KST,LST = 11  1  1  1 NREC =         1 INTLOC = 7129
 II,JST,KST,LST = 12  1  1  1 NREC =         1 INTLOC =12126
 II,JST,KST,LST = 13  1  1  1 NREC =         2 INTLOC =13691
 II,JST,KST,LST = 14  1  1  1 NREC =         3 INTLOC = 7058
 II,JST,KST,LST = 15  1  1  1 NREC =         4 INTLOC = 1354
 II,JST,KST,LST = 16  1  1  1 NREC =         4 INTLOC =11651
 II,JST,KST,LST = 17  1  1  1 NREC =         5 INTLOC = 8024
 II,JST,KST,LST = 18  1  1  1 NREC =         7 INTLOC =14769
 II,JST,KST,LST = 19  1  1  1 NREC =        11 INTLOC =  984
 II,JST,KST,LST = 20  1  1  1 NREC =        14 INTLOC =13021
 II,JST,KST,LST = 21  1  1  1 NREC =        24 INTLOC =14963
 II,JST,KST,LST = 22  1  1  1 NREC =        39 INTLOC = 2048
 TOTAL NUMBER OF NONZERO TWO-ELECTRON INTEGRALS =             1083276
         73 INTEGRAL RECORDS WERE STORED ON DISK FILE  8.
  ...... END OF TWO-ELECTRON INTEGRALS .....
 STEP CPU TIME =     0.11 TOTAL CPU TIME =        0.1 (    0.0 MIN)
 TOTAL WALL CLOCK TIME=        0.1 SECONDS, CPU UTILIZATION IS  92.31%

          ---------------------------
                 ROHF SCF CALCULATION
          ---------------------------

     NUCLEAR ENERGY =         7.8375569539
     MAXIT = 30     NPUNCH=  2     MULT=  2
     EXTRAP=T  DAMP=F  SHIFT=F  RSTRCT=F  DIIS=F  SOSCF=T
     DENSITY MATRIX CONV=  1.00E-05
     ROHF CANONICALIZATION PARAMETERS
             C-C     O-O     V-V
     ALPHA -0.5000  0.5000  1.5000
     BETA   1.5000  0.5000 -0.5000
     SOSCF WILL OPTIMIZE     269 ORBITAL ROTATION ANGLES. SOGTOL= 2.500E-01
     MEMORY REQUIRED FOR UHF/ROHF ITERS=     70557 WORDS.

 ITER EX      TOTAL ENERGY        E CHANGE  DENSITY CHANGE    ORB. GRAD 
   1  0      -75.2703552895   -75.2703552895   0.331678745   0.000000000
          ---------------START SECOND ORDER SCF---------------
   2  1      -75.5704348265    -0.3000795370   0.098710792   0.127907462
   3  2      -75.6072170870    -0.0367822606   0.034936705   0.059432507
   4  3      -75.6228076670    -0.0155905799   0.008486971   0.007321677
   5  4      -75.6230942381    -0.0002865711   0.004510449   0.002740453
   6  5      -75.6231482914    -0.0000540533   0.000384657   0.000452356
   7  6      -75.6231497283    -0.0000014369   0.000183477   0.000146769
   8  7      -75.6231499131    -0.0000001848   0.000034215   0.000027385
   9  8      -75.6231499177    -0.0000000046   0.000012786   0.000007635
  10  9      -75.6231499182    -0.0000000006   0.000000715   0.000000605
  11 10      -75.6231499182    -0.0000000000   0.000000239   0.000000181

          -----------------
          DENSITY CONVERGED
          -----------------
     TIME TO FORM FOCK OPERATORS=       0.2 SECONDS (       0.0 SEC/ITER)
     TIME TO SOLVE SCF EQUATIONS=       0.0 SECONDS (       0.0 SEC/ITER)

 FINAL ROHF ENERGY IS      -75.6231499182 AFTER  11 ITERATIONS

          --------------------
          SPIN SZ   =    0.500
          S-SQUARED =    0.750
          --------------------

          ------------
          EIGENVECTORS
          ------------

                      1          2          3          4          5
                  -21.0366    -1.5756    -1.0796    -0.9368    -0.6494
                     A          A          A          A          A   
    1  H  1  S    0.000090   0.062610  -0.120126  -0.060430   0.000000
    2  H  1  S    0.001226   0.069537  -0.187154  -0.102249   0.000000
    3  H  1  S   -0.000281  -0.001998  -0.019833  -0.016751   0.000000
    4  H  1  X   -0.000000  -0.000000  -0.000000   0.000000   0.006856
    5  H  1  Y    0.000355   0.010362  -0.009707  -0.006819   0.000000
    6  H  1  Z    0.000181   0.004595  -0.007564   0.002655   0.000000
    7  H  1  X   -0.000000  -0.000000  -0.000000   0.000000   0.016574
    8  H  1  Y    0.000693   0.018091  -0.030468  -0.025480   0.000000
    9  H  1  Z    0.000350   0.005323  -0.020088   0.010336   0.000000
   10  H  1 XX   -0.000157  -0.001739   0.001605   0.000633   0.000000
   11  H  1 YY    0.000216   0.002921  -0.001172  -0.004024   0.000000
   12  H  1 ZZ   -0.000059  -0.001182  -0.000433   0.003391   0.000000
   13  H  1 XY   -0.000000  -0.000000  -0.000000   0.000000   0.004143
   14  H  1 XZ   -0.000000  -0.000000  -0.000000   0.000000   0.002177
   15  H  1 YZ    0.000200   0.002021  -0.003856   0.001675   0.000000
   16  H  2  S    0.000090   0.062610   0.120126  -0.060430   0.000000
   17  H  2  S    0.001226   0.069537   0.187154  -0.102249   0.000000
   18  H  2  S   -0.000281  -0.001998   0.019833  -0.016751   0.000000
   19  H  2  X   -0.000000  -0.000000  -0.000000   0.000000   0.006856
   20  H  2  Y   -0.000355  -0.010362  -0.009707   0.006819   0.000000
   21  H  2  Z    0.000181   0.004595   0.007564   0.002655   0.000000
   22  H  2  X   -0.000000  -0.000000  -0.000000   0.000000   0.016574
   23  H  2  Y   -0.000693  -0.018091  -0.030468   0.025480   0.000000
   24  H  2  Z    0.000350   0.005323   0.020088   0.010336   0.000000
   25  H  2 XX   -0.000157  -0.001739  -0.001605   0.000633   0.000000
   26  H  2 YY    0.000216   0.002921   0.001172  -0.004024   0.000000
   27  H  2 ZZ   -0.000059  -0.001182   0.000433   0.003391   0.000000
   28  H  2 XY   -0.000000  -0.000000  -0.000000   0.000000  -0.004143
   29  H  2 XZ   -0.000000  -0.000000  -0.000000   0.000000   0.002177
   30  H  2 YZ   -0.000200  -0.002021  -0.003856  -0.001675   0.000000
   31  O  3  S    0.975953   0.005086  -0.000000   0.005461   0.000000
   32  O  3  S   -0.001998   0.554428  -0.000000   0.146359   0.000000
   33  O  3  S    0.042904   0.147458  -0.000000   0.045329   0.000000
   34  O  3  S    0.000365   0.283058  -0.000000   0.156180   0.000000
   35  O  3  X   -0.000000  -0.000000  -0.000000   0.000000   0.397073
   36  O  3  Y   -0.000000  -0.000000   0.299764   0.000000   0.000000
   37  O  3  Z   -0.001645  -0.037125  -0.000000   0.355097   0.000000
   38  O  3  X   -0.000000  -0.000000  -0.000000   0.000000   0.515548
   39  O  3  Y   -0.000000  -0.000000   0.388885   0.000000   0.000000
   40  O  3  Z    0.001276  -0.055904   0.000000   0.453414   0.000000
   41  O  3  X   -0.000000  -0.000000  -0.000000   0.000000   0.272723
   42  O  3  Y    0.000000  -0.000000   0.163869   0.000000   0.000000
   43  O  3  Z   -0.000012  -0.017206  -0.000000   0.268980   0.000000
   44  O  3 XX   -0.000159  -0.003281  -0.000000   0.004499   0.000000
   45  O  3 YY    0.000075   0.003633  -0.000000  -0.001357   0.000000
   46  O  3 ZZ    0.000084  -0.000352  -0.000000  -0.003142   0.000000
   47  O  3 XY   -0.000000  -0.000000  -0.000000   0.000000   0.000000
   48  O  3 XZ   -0.000000  -0.000000  -0.000000   0.000000  -0.003949
   49  O  3 YZ   -0.000000  -0.000000  -0.009935   0.000000   0.000000
   50  O  3 XX    0.000426  -0.009355  -0.000000   0.011990   0.000000
   51  O  3 YY   -0.000761   0.009637  -0.000000   0.004532   0.000000
   52  O  3 ZZ    0.000335  -0.000283  -0.000000  -0.016522   0.000000
   53  O  3 XY   -0.000000  -0.000000  -0.000000   0.000000   0.000000
   54  O  3 XZ   -0.000000  -0.000000  -0.000000   0.000000  -0.017620
   55  O  3 YZ   -0.000000  -0.000000  -0.024417   0.000000   0.000000
   56  O  3 XXX  -0.000000  -0.000000  -0.000000   0.000000   0.004558
   57  O  3 YYY  -0.000000  -0.000000   0.003053   0.000000   0.000000
   58  O  3 ZZZ  -0.000125   0.001570  -0.000000  -0.003420   0.000000
   59  O  3 XXY  -0.000000  -0.000000  -0.002259   0.000000   0.000000
   60  O  3 XXZ  -0.000075   0.000853  -0.000000   0.000721   0.000000
   61  O  3 YYX  -0.000000  -0.000000  -0.000000   0.000000  -0.000525
   62  O  3 YYZ   0.000243  -0.002959  -0.000000   0.003867   0.000000
   63  O  3 ZZX  -0.000000  -0.000000  -0.000000   0.000000  -0.005590
   64  O  3 ZZY  -0.000000  -0.000000  -0.001837   0.000000   0.000000
   65  O  3 XYZ  -0.000000  -0.000000  -0.000000   0.000000   0.000000

                      6          7          8          9         10
                   -0.2044    -0.1092     0.1143     0.1909     0.3095
                     A          A          A          A          A   
    1  H  1  S   -0.101043  -0.068495   0.118200  -0.100685  -0.000000
    2  H  1  S   -0.287884  -0.247154   0.931487  -1.118198  -0.000000
    3  H  1  S   -0.614914  -1.068005  -0.874003   1.085648  -0.000000
    4  H  1  X    0.000000   0.000000   0.000000   0.000000  -0.015064
    5  H  1  Y    0.007377   0.011433   0.018107  -0.013358  -0.000000
    6  H  1  Z    0.001230   0.008454   0.002012  -0.013306  -0.000000
    7  H  1  X    0.000000   0.000000   0.000000   0.000000   0.161033
    8  H  1  Y   -0.018834  -0.040209  -0.158139   0.010162  -0.000000
    9  H  1  Z   -0.021770  -0.012151   0.057444   0.172547  -0.000000
   10  H  1 XX    0.003245   0.002008  -0.000064  -0.000351  -0.000000
   11  H  1 YY   -0.003026  -0.005111  -0.004816  -0.006597  -0.000000
   12  H  1 ZZ   -0.000219   0.003103   0.004880   0.006948  -0.000000
   13  H  1 XY    0.000000   0.000000   0.000000   0.000000  -0.014608
   14  H  1 XZ    0.000000   0.000000   0.000000   0.000000  -0.008783
   15  H  1 YZ   -0.005374  -0.003019   0.002776  -0.001188  -0.000000
   16  H  2  S   -0.101043   0.068495   0.118200   0.100685  -0.000000
   17  H  2  S   -0.287884   0.247154   0.931487   1.118198  -0.000000
   18  H  2  S   -0.614914   1.068005  -0.874003  -1.085648  -0.000000
   19  H  2  X    0.000000   0.000000   0.000000   0.000000  -0.015064
   20  H  2  Y   -0.007377   0.011433  -0.018107  -0.013358  -0.000000
   21  H  2  Z    0.001230  -0.008454   0.002012   0.013306  -0.000000
   22  H  2  X    0.000000   0.000000   0.000000   0.000000   0.161033
   23  H  2  Y    0.018834  -0.040209   0.158139   0.010162  -0.000000
   24  H  2  Z   -0.021770   0.012151   0.057444  -0.172547  -0.000000
   25  H  2 XX    0.003245  -0.002008  -0.000064   0.000351  -0.000000
   26  H  2 YY   -0.003026   0.005111  -0.004816   0.006597  -0.000000
   27  H  2 ZZ   -0.000219  -0.003103   0.004880  -0.006948  -0.000000
   28  H  2 XY    0.000000   0.000000   0.000000   0.000000   0.014608
   29  H  2 XZ    0.000000   0.000000   0.000000   0.000000  -0.008783
   30  H  2 YZ    0.005374  -0.003019  -0.002776  -0.001188  -0.000000
   31  O  3  S   -0.006803   0.000000  -0.013865  -0.000000  -0.000000
   32  O  3  S    0.203307   0.000000  -0.097913  -0.000000  -0.000000
   33  O  3  S    0.068304   0.000000  -0.022532   0.000000  -0.000000
   34  O  3  S    0.785455   0.000000   0.185978  -0.000000  -0.000000
   35  O  3  X    0.000000   0.000000   0.000000   0.000000  -0.258336
   36  O  3  Y    0.000000  -0.197471   0.000000  -0.128436  -0.000000
   37  O  3  Z   -0.111792   0.000000   0.061943   0.000000  -0.000000
   38  O  3  X    0.000000   0.000000   0.000000   0.000000  -0.663619
   39  O  3  Y    0.000000  -0.263726   0.000000  -0.190369  -0.000000
   40  O  3  Z   -0.163961   0.000000   0.070859   0.000000  -0.000000
   41  O  3  X    0.000000   0.000000   0.000000   0.000000   1.023709
   42  O  3  Y   -0.000000  -0.645546   0.000000  -0.427194  -0.000000
   43  O  3  Z   -0.233041   0.000000   0.120538   0.000000  -0.000000
   44  O  3 XX    0.010570   0.000000  -0.013935   0.000000  -0.000000
   45  O  3 YY   -0.010648   0.000000   0.021295   0.000000  -0.000000
   46  O  3 ZZ    0.000077   0.000000  -0.007360   0.000000  -0.000000
   47  O  3 XY    0.000000   0.000000   0.000000   0.000000  -0.000000
   48  O  3 XZ    0.000000   0.000000   0.000000   0.000000   0.003960
   49  O  3 YZ    0.000000  -0.005306   0.000000  -0.020934  -0.000000
   50  O  3 XX    0.007771  -0.000000  -0.047345   0.000000  -0.000000
   51  O  3 YY   -0.005697   0.000000   0.040756  -0.000000  -0.000000
   52  O  3 ZZ   -0.002074   0.000000   0.006588   0.000000  -0.000000
   53  O  3 XY    0.000000   0.000000   0.000000   0.000000  -0.000000
   54  O  3 XZ    0.000000   0.000000   0.000000   0.000000  -0.026140
   55  O  3 YZ    0.000000   0.019292  -0.000000  -0.007299  -0.000000
   56  O  3 XXX   0.000000   0.000000   0.000000   0.000000  -0.006019
   57  O  3 YYY   0.000000  -0.001377   0.000000  -0.000843  -0.000000
   58  O  3 ZZZ   0.003336   0.000000  -0.001834   0.000000  -0.000000
   59  O  3 XXY   0.000000  -0.001303   0.000000   0.001102  -0.000000
   60  O  3 XXZ  -0.002075   0.000000   0.002822   0.000000  -0.000000
   61  O  3 YYX   0.000000   0.000000   0.000000   0.000000   0.004535
   62  O  3 YYZ  -0.002401   0.000000  -0.000362   0.000000  -0.000000
   63  O  3 ZZX   0.000000   0.000000   0.000000   0.000000   0.003540
   64  O  3 ZZY   0.000000   0.003150   0.000000   0.000029  -0.000000
   65  O  3 XYZ   0.000000   0.000000   0.000000   0.000000  -0.000000

                     11         12         13         14         15
                    0.3535     0.4227     0.4312     0.5970     0.6593
                     A          A          A          A          A   
    1  H  1  S    0.043106   0.000000  -0.069970   0.029182  -0.000000
    2  H  1  S   -0.704643   0.000000   0.916426   0.436852  -0.000000
    3  H  1  S   -0.344748   0.000000   1.070569  -0.258099  -0.000000
    4  H  1  X   -0.000000   0.052749  -0.000000   0.000000   0.062739
    5  H  1  Y   -0.007117   0.000000   0.000847  -0.048066  -0.000000
    6  H  1  Z    0.012051   0.000000   0.011941   0.041468  -0.000000
    7  H  1  X   -0.000000  -0.734385  -0.000000   0.000000  -0.901517
    8  H  1  Y   -0.438431   0.000000   0.745419   0.384851  -0.000000
    9  H  1  Z   -0.448730   0.000000   0.101351  -0.693687  -0.000000
   10  H  1 XX    0.030893   0.000000  -0.024699   0.002540  -0.000000
   11  H  1 YY   -0.044675   0.000000   0.045041   0.003888  -0.000000
   12  H  1 ZZ    0.013783   0.000000  -0.020343  -0.006428  -0.000000
   13  H  1 XY   -0.000000  -0.009947  -0.000000   0.000000  -0.015397
   14  H  1 XZ   -0.000000  -0.010322  -0.000000   0.000000   0.004574
   15  H  1 YZ   -0.036009   0.000000   0.043390  -0.037285  -0.000000
   16  H  2  S    0.043106   0.000000   0.069970   0.029182  -0.000000
   17  H  2  S   -0.704643   0.000000  -0.916426   0.436852  -0.000000
   18  H  2  S   -0.344748   0.000000  -1.070569  -0.258099  -0.000000
   19  H  2  X   -0.000000  -0.052749  -0.000000   0.000000   0.062739
   20  H  2  Y    0.007117   0.000000   0.000847   0.048066  -0.000000
   21  H  2  Z    0.012051   0.000000  -0.011941   0.041468  -0.000000
   22  H  2  X   -0.000000   0.734385  -0.000000   0.000000  -0.901517
   23  H  2  Y    0.438431   0.000000   0.745419  -0.384851  -0.000000
   24  H  2  Z   -0.448730   0.000000  -0.101351  -0.693687  -0.000000
   25  H  2 XX    0.030893   0.000000   0.024699   0.002540  -0.000000
   26  H  2 YY   -0.044675   0.000000  -0.045041   0.003888  -0.000000
   27  H  2 ZZ    0.013783   0.000000   0.020343  -0.006428  -0.000000
   28  H  2 XY   -0.000000  -0.009947  -0.000000   0.000000   0.015397
   29  H  2 XZ   -0.000000   0.010322  -0.000000   0.000000   0.004574
   30  H  2 YZ    0.036009   0.000000   0.043390   0.037285  -0.000000
   31  O  3  S   -0.022259   0.000000   0.000000  -0.137297  -0.000000
   32  O  3  S   -0.020530   0.000000   0.000000  -0.437382  -0.000000
   33  O  3  S   -0.041843   0.000000   0.000000  -0.099668  -0.000000
   34  O  3  S    1.764970   0.000000  -0.000000   0.367166  -0.000000
   35  O  3  X   -0.000000   0.000000  -0.000000   0.000000  -0.028940
   36  O  3  Y    0.000000   0.000000  -0.224663   0.000000  -0.000000
   37  O  3  Z    0.242162   0.000000   0.000000  -0.034930  -0.000000
   38  O  3  X   -0.000000   0.000000  -0.000000   0.000000  -0.179617
   39  O  3  Y    0.000000   0.000000  -0.274406   0.000000  -0.000000
   40  O  3  Z    0.483744   0.000000   0.000000  -0.256323  -0.000000
   41  O  3  X   -0.000000   0.000000  -0.000000   0.000000   1.124713
   42  O  3  Y   -0.000000   0.000000   2.488007  -0.000000  -0.000000
   43  O  3  Z   -1.348333   0.000000   0.000000   1.245888  -0.000000
   44  O  3 XX    0.019466   0.000000  -0.000000  -0.009251  -0.000000
   45  O  3 YY   -0.024124   0.000000  -0.000000  -0.013910  -0.000000
   46  O  3 ZZ    0.004658   0.000000  -0.000000   0.023161  -0.000000
   47  O  3 XY   -0.000000   0.025818  -0.000000   0.000000  -0.000000
   48  O  3 XZ   -0.000000   0.000000  -0.000000   0.000000   0.014370
   49  O  3 YZ   -0.000000   0.000000   0.039223   0.000000  -0.000000
   50  O  3 XX   -0.159021   0.000000   0.000000  -0.091534  -0.000000
   51  O  3 YY    0.203884   0.000000  -0.000000   0.037367  -0.000000
   52  O  3 ZZ   -0.044863   0.000000   0.000000   0.054166  -0.000000
   53  O  3 XY   -0.000000   0.065381  -0.000000   0.000000  -0.000000
   54  O  3 XZ   -0.000000   0.000000  -0.000000   0.000000   0.139712
   55  O  3 YZ    0.000000   0.000000  -0.248120   0.000000  -0.000000
   56  O  3 XXX  -0.000000   0.000000  -0.000000   0.000000  -0.005445
   57  O  3 YYY  -0.000000   0.000000   0.017767   0.000000  -0.000000
   58  O  3 ZZZ   0.013001   0.000000  -0.000000   0.003447  -0.000000
   59  O  3 XXY  -0.000000   0.000000  -0.028407   0.000000  -0.000000
   60  O  3 XXZ   0.014529   0.000000  -0.000000   0.001384  -0.000000
   61  O  3 YYX  -0.000000   0.000000  -0.000000   0.000000   0.011066
   62  O  3 YYZ  -0.031972   0.000000  -0.000000  -0.006008  -0.000000
   63  O  3 ZZX  -0.000000   0.000000  -0.000000   0.000000  -0.003762
   64  O  3 ZZY  -0.000000   0.000000   0.004570   0.000000  -0.000000
   65  O  3 XYZ  -0.000000   0.006971  -0.000000   0.000000  -0.000000

                     16         17         18         19         20
                    0.7382     0.8365     0.9437     1.0741     1.3824
                     A          A          A          A          A   
    1  H  1  S    0.000943   0.065528  -0.080670   0.121294  -0.000000
    2  H  1  S    1.219238  -1.331691  -1.072593   0.926625  -0.000000
    3  H  1  S    0.281434  -0.524534  -0.493044   0.813578  -0.000000
    4  H  1  X    0.000000  -0.000000  -0.000000  -0.000000  -0.029788
    5  H  1  Y    0.033419  -0.028725   0.083862  -0.065247  -0.000000
    6  H  1  Z   -0.045549  -0.047031   0.018414  -0.063573  -0.000000
    7  H  1  X    0.000000  -0.000000  -0.000000  -0.000000   0.466835
    8  H  1  Y   -0.163459  -0.746176  -1.469269   1.219964  -0.000000
    9  H  1  Z    0.878178   0.029125  -0.602616   0.922096  -0.000000
   10  H  1 XX   -0.015146   0.088340   0.044370  -0.006205  -0.000000
   11  H  1 YY    0.020738  -0.097988  -0.033254   0.031810  -0.000000
   12  H  1 ZZ   -0.005593   0.009648  -0.011116  -0.025606  -0.000000
   13  H  1 XY    0.000000  -0.000000  -0.000000  -0.000000  -0.039328
   14  H  1 XZ    0.000000  -0.000000  -0.000000  -0.000000   0.052330
   15  H  1 YZ    0.015989  -0.097541  -0.035798   0.025295  -0.000000
   16  H  2  S   -0.000943   0.065528  -0.080670  -0.121294  -0.000000
   17  H  2  S   -1.219238  -1.331691  -1.072593  -0.926625  -0.000000
   18  H  2  S   -0.281434  -0.524534  -0.493044  -0.813578  -0.000000
   19  H  2  X    0.000000  -0.000000  -0.000000  -0.000000  -0.029788
   20  H  2  Y    0.033419   0.028725  -0.083862  -0.065247  -0.000000
   21  H  2  Z    0.045549  -0.047031   0.018414   0.063573  -0.000000
   22  H  2  X    0.000000  -0.000000  -0.000000  -0.000000   0.466835
   23  H  2  Y   -0.163459   0.746176   1.469269   1.219964  -0.000000
   24  H  2  Z   -0.878178   0.029125  -0.602616  -0.922096  -0.000000
   25  H  2 XX    0.015146   0.088340   0.044370   0.006205  -0.000000
   26  H  2 YY   -0.020738  -0.097988  -0.033254  -0.031810  -0.000000
   27  H  2 ZZ    0.005593   0.009648  -0.011116   0.025606  -0.000000
   28  H  2 XY    0.000000  -0.000000  -0.000000  -0.000000   0.039328
   29  H  2 XZ    0.000000  -0.000000  -0.000000  -0.000000   0.052330
   30  H  2 YZ    0.015989   0.097541   0.035798   0.025295  -0.000000
   31  O  3  S    0.000000  -0.487308   0.064988   0.000000  -0.000000
   32  O  3  S    0.000000  -1.338911   0.253711   0.000000  -0.000000
   33  O  3  S    0.000000  -0.366295   0.012235  -0.000000  -0.000000
   34  O  3  S   -0.000000   4.288665   3.139956  -0.000000  -0.000000
   35  O  3  X    0.000000  -0.000000  -0.000000  -0.000000   0.027422
   36  O  3  Y   -0.074617  -0.000000  -0.000000   0.180535  -0.000000
   37  O  3  Z    0.000000   0.029503  -0.114747   0.000000  -0.000000
   38  O  3  X    0.000000  -0.000000  -0.000000  -0.000000   0.037285
   39  O  3  Y   -0.225979  -0.000000  -0.000000   0.840098  -0.000000
   40  O  3  Z    0.000000  -0.173600  -0.559009  -0.000000  -0.000000
   41  O  3  X    0.000000  -0.000000  -0.000000  -0.000000  -0.467111
   42  O  3  Y    2.379543   0.000000   0.000000   1.498385  -0.000000
   43  O  3  Z    0.000000  -1.196034  -0.571372   0.000000  -0.000000
   44  O  3 XX    0.000000   0.011070   0.025506  -0.000000  -0.000000
   45  O  3 YY    0.000000  -0.020632  -0.032737  -0.000000  -0.000000
   46  O  3 ZZ    0.000000   0.009562   0.007231  -0.000000  -0.000000
   47  O  3 XY    0.000000  -0.000000  -0.000000  -0.000000  -0.000000
   48  O  3 XZ    0.000000  -0.000000  -0.000000  -0.000000  -0.000326
   49  O  3 YZ    0.010001  -0.000000  -0.000000   0.018124  -0.000000
   50  O  3 XX    0.000000  -0.000735   0.078875   0.000000  -0.000000
   51  O  3 YY   -0.000000   0.238516   0.080856  -0.000000  -0.000000
   52  O  3 ZZ    0.000000  -0.237781  -0.159731   0.000000  -0.000000
   53  O  3 XY    0.000000  -0.000000  -0.000000  -0.000000  -0.000000
   54  O  3 XZ    0.000000  -0.000000  -0.000000  -0.000000   1.017543
   55  O  3 YZ   -0.104366  -0.000000  -0.000000   0.022298  -0.000000
   56  O  3 XXX   0.000000  -0.000000  -0.000000  -0.000000   0.001307
   57  O  3 YYY   0.014274  -0.000000  -0.000000   0.007453  -0.000000
   58  O  3 ZZZ  -0.000000   0.038004   0.014103  -0.000000  -0.000000
   59  O  3 XXY  -0.012341  -0.000000  -0.000000  -0.006419  -0.000000
   60  O  3 XXZ   0.000000   0.019704   0.002069  -0.000000  -0.000000
   61  O  3 YYX   0.000000  -0.000000  -0.000000  -0.000000   0.012524
   62  O  3 YYZ   0.000000  -0.070692  -0.020990  -0.000000  -0.000000
   63  O  3 ZZX   0.000000  -0.000000  -0.000000  -0.000000  -0.014277
   64  O  3 ZZY  -0.006811  -0.000000  -0.000000  -0.003580  -0.000000
   65  O  3 XYZ   0.000000  -0.000000  -0.000000  -0.000000  -0.000000

                     21         22         23         24         25
                    1.5052     1.5502     1.8526     1.9180     2.3299
                     A          A          A          A          A   
    1  H  1  S   -0.180525   0.000000  -0.279266   0.247116  -1.068963
    2  H  1  S   -0.528320   0.000000   2.743772  -3.269615   2.125661
    3  H  1  S   -0.241794   0.000000   0.356749  -0.233996  -0.313393
    4  H  1  X   -0.000000  -0.073324   0.000000   0.000000  -0.000000
    5  H  1  Y    0.028896   0.000000  -0.041422  -0.015486   0.022352
    6  H  1  Z   -0.039179   0.000000   0.064398   0.080746   0.046197
    7  H  1  X   -0.000000   0.527677   0.000000   0.000000  -0.000000
    8  H  1  Y   -0.669844   0.000000   1.347941  -1.760256   0.682734
    9  H  1  Z    0.301343   0.000000   0.630381  -0.857644   0.025093
   10  H  1 XX   -0.033818   0.000000  -0.097288   0.071247  -0.030279
   11  H  1 YY    0.006994   0.000000   0.091178  -0.145986  -0.086784
   12  H  1 ZZ    0.026825   0.000000   0.006111   0.074739   0.117063
   13  H  1 XY   -0.000000  -0.014016   0.000000   0.000000  -0.000000
   14  H  1 XZ   -0.000000  -0.051625   0.000000   0.000000  -0.000000
   15  H  1 YZ   -0.060618   0.000000   0.106641  -0.141192   0.036829
   16  H  2  S   -0.180525   0.000000   0.279266   0.247116  -1.068963
   17  H  2  S   -0.528320   0.000000  -2.743772  -3.269615   2.125661
   18  H  2  S   -0.241794   0.000000  -0.356749  -0.233996  -0.313393
   19  H  2  X   -0.000000   0.073324   0.000000   0.000000  -0.000000
   20  H  2  Y   -0.028896   0.000000  -0.041422   0.015486  -0.022352
   21  H  2  Z   -0.039179   0.000000  -0.064398   0.080746   0.046197
   22  H  2  X   -0.000000  -0.527677   0.000000   0.000000  -0.000000
   23  H  2  Y    0.669844   0.000000   1.347941   1.760256  -0.682734
   24  H  2  Z    0.301343   0.000000  -0.630381  -0.857644   0.025093
   25  H  2 XX   -0.033818   0.000000   0.097288   0.071247  -0.030279
   26  H  2 YY    0.006994   0.000000  -0.091178  -0.145986  -0.086784
   27  H  2 ZZ    0.026825   0.000000  -0.006111   0.074739   0.117063
   28  H  2 XY   -0.000000  -0.014016   0.000000   0.000000  -0.000000
   29  H  2 XZ   -0.000000   0.051625   0.000000   0.000000  -0.000000
   30  H  2 YZ    0.060618   0.000000   0.106641   0.141192  -0.036829
   31  O  3  S   -0.132773   0.000000   0.000000  -0.096844  -0.064082
   32  O  3  S   -0.307373   0.000000   0.000000  -0.202319  -0.138483
   33  O  3  S   -0.084194   0.000000   0.000000  -0.190135   0.030357
   34  O  3  S    1.766369   0.000000  -0.000000   5.875827  -1.798679
   35  O  3  X   -0.000000   0.000000   0.000000   0.000000  -0.000000
   36  O  3  Y   -0.000000   0.000000   0.102120   0.000000   0.000000
   37  O  3  Z   -0.009017   0.000000   0.000000  -0.153532  -0.079260
   38  O  3  X   -0.000000   0.000000   0.000000   0.000000  -0.000000
   39  O  3  Y    0.000000   0.000000   0.796392   0.000000  -0.000000
   40  O  3  Z   -0.047734   0.000000   0.000000  -0.514928   0.223969
   41  O  3  X   -0.000000   0.000000   0.000000   0.000000  -0.000000
   42  O  3  Y    0.000000   0.000000   2.842312   0.000000  -0.000000
   43  O  3  Z   -0.947695   0.000000   0.000000  -1.658392   0.786448
   44  O  3 XX    0.001917   0.000000   0.000000   0.004307  -0.007319
   45  O  3 YY   -0.005410   0.000000   0.000000  -0.017858   0.032456
   46  O  3 ZZ    0.003493   0.000000  -0.000000   0.013551  -0.025137
   47  O  3 XY   -0.000000   0.008676   0.000000   0.000000  -0.000000
   48  O  3 XZ   -0.000000   0.000000   0.000000   0.000000  -0.000000
   49  O  3 YZ   -0.000000   0.000000   0.013720   0.000000  -0.000000
   50  O  3 XX   -0.740168   0.000000   0.000000  -1.245450   0.122804
   51  O  3 YY   -0.213955   0.000000  -0.000000   1.694565   0.057084
   52  O  3 ZZ    0.954123   0.000000   0.000000  -0.449116  -0.179888
   53  O  3 XY   -0.000000   1.113217   0.000000   0.000000  -0.000000
   54  O  3 XZ   -0.000000   0.000000   0.000000   0.000000  -0.000000
   55  O  3 YZ   -0.000000   0.000000  -1.559305  -0.000000  -0.000000
   56  O  3 XXX  -0.000000   0.000000   0.000000   0.000000  -0.000000
   57  O  3 YYY  -0.000000   0.000000   0.026585   0.000000  -0.000000
   58  O  3 ZZZ  -0.013621   0.000000  -0.000000   0.051754  -0.070844
   59  O  3 XXY  -0.000000   0.000000  -0.056406   0.000000   0.000000
   60  O  3 XXZ   0.005133   0.000000  -0.000000   0.036811  -0.039340
   61  O  3 YYX  -0.000000   0.000000   0.000000   0.000000  -0.000000
   62  O  3 YYZ   0.013142   0.000000   0.000000  -0.106245   0.134387
   63  O  3 ZZX  -0.000000   0.000000   0.000000   0.000000  -0.000000
   64  O  3 ZZY  -0.000000   0.000000   0.020738  -0.000000  -0.000000
   65  O  3 XYZ  -0.000000  -0.001250   0.000000   0.000000  -0.000000

                     26         27         28         29         30
                    2.3395     2.9725     2.9987     3.0108     3.0992
                     A          A          A          A          A   
    1  H  1  S   -1.069410   0.000000   0.000000  -0.113613  -0.097947
    2  H  1  S    1.764623   0.000000   0.000000   0.150382  -0.253410
    3  H  1  S   -0.453636   0.000000   0.000000  -0.070416  -0.090750
    4  H  1  X   -0.000000   0.277872  -0.145556   0.000000  -0.000000
    5  H  1  Y    0.064134   0.000000   0.000000   0.169841   0.219974
    6  H  1  Z    0.005548   0.000000   0.000000  -0.064307   0.035451
    7  H  1  X   -0.000000  -0.132536   0.065112   0.000000  -0.000000
    8  H  1  Y    0.250300   0.000000   0.000000  -0.093987  -0.347798
    9  H  1  Z    0.321952   0.000000   0.000000   0.034143  -0.098996
   10  H  1 XX    0.093808   0.000000   0.000000  -0.533288   0.609483
   11  H  1 YY    0.022410   0.000000   0.000000   0.173943  -0.132132
   12  H  1 ZZ   -0.116218   0.000000   0.000000   0.359344  -0.477351
   13  H  1 XY   -0.000000   0.118978  -0.453175   0.000000  -0.000000
   14  H  1 XZ   -0.000000   0.549643   0.500700   0.000000  -0.000000
   15  H  1 YZ   -0.035377   0.000000   0.000000  -0.388804   0.183575
   16  H  2  S    1.069410   0.000000   0.000000   0.113613  -0.097947
   17  H  2  S   -1.764623   0.000000   0.000000  -0.150382  -0.253410
   18  H  2  S    0.453636   0.000000   0.000000   0.070416  -0.090750
   19  H  2  X   -0.000000   0.277872   0.145556   0.000000  -0.000000
   20  H  2  Y    0.064134   0.000000   0.000000   0.169841  -0.219974
   21  H  2  Z   -0.005548   0.000000   0.000000   0.064307   0.035451
   22  H  2  X   -0.000000  -0.132536  -0.065112   0.000000  -0.000000
   23  H  2  Y    0.250300   0.000000   0.000000  -0.093987   0.347798
   24  H  2  Z   -0.321952   0.000000   0.000000  -0.034143  -0.098996
   25  H  2 XX   -0.093808   0.000000   0.000000   0.533288   0.609483
   26  H  2 YY   -0.022410   0.000000   0.000000  -0.173943  -0.132132
   27  H  2 ZZ    0.116218   0.000000   0.000000  -0.359344  -0.477351
   28  H  2 XY   -0.000000  -0.118978  -0.453175   0.000000  -0.000000
   29  H  2 XZ   -0.000000   0.549643  -0.500700   0.000000  -0.000000
   30  H  2 YZ   -0.035377   0.000000   0.000000  -0.388804  -0.183575
   31  O  3  S   -0.000000   0.000000   0.000000   0.000000   0.027213
   32  O  3  S   -0.000000   0.000000   0.000000   0.000000   0.018533
   33  O  3  S   -0.000000   0.000000   0.000000   0.000000  -0.042431
   34  O  3  S   -0.000000   0.000000   0.000000   0.000000   0.735004
   35  O  3  X   -0.000000  -0.470815   0.000000   0.000000  -0.000000
   36  O  3  Y   -0.123880   0.000000   0.000000  -0.006508  -0.000000
   37  O  3  Z   -0.000000   0.000000   0.000000   0.000000   0.054904
   38  O  3  X   -0.000000   0.388646   0.000000   0.000000  -0.000000
   39  O  3  Y    0.428997   0.000000   0.000000  -0.028726   0.000000
   40  O  3  Z    0.000000   0.000000   0.000000  -0.000000  -0.101158
   41  O  3  X   -0.000000  -0.191460   0.000000   0.000000  -0.000000
   42  O  3  Y    0.669590   0.000000   0.000000   0.049643   0.000000
   43  O  3  Z    0.000000   0.000000   0.000000   0.000000  -0.202478
   44  O  3 XX   -0.000000   0.000000   0.000000   0.000000  -0.059583
   45  O  3 YY    0.000000   0.000000   0.000000   0.000000   0.041589
   46  O  3 ZZ   -0.000000   0.000000   0.000000   0.000000   0.017993
   47  O  3 XY   -0.000000   0.000000   0.038021   0.000000  -0.000000
   48  O  3 XZ   -0.000000  -0.036438   0.000000   0.000000  -0.000000
   49  O  3 YZ    0.027428   0.000000   0.000000   0.040749  -0.000000
   50  O  3 XX    0.000000   0.000000   0.000000   0.000000  -0.300852
   51  O  3 YY    0.000000   0.000000   0.000000   0.000000   0.158155
   52  O  3 ZZ   -0.000000   0.000000   0.000000   0.000000   0.142697
   53  O  3 XY   -0.000000   0.000000  -0.053129   0.000000  -0.000000
   54  O  3 XZ   -0.000000  -0.004406   0.000000   0.000000  -0.000000
   55  O  3 YZ    0.157560   0.000000   0.000000  -0.012286  -0.000000
   56  O  3 XXX  -0.000000  -0.049043   0.000000   0.000000  -0.000000
   57  O  3 YYY   0.063583   0.000000   0.000000  -0.025623  -0.000000
   58  O  3 ZZZ  -0.000000   0.000000   0.000000   0.000000   0.112519
   59  O  3 XXY  -0.107538   0.000000   0.000000   0.117365  -0.000000
   60  O  3 XXZ  -0.000000   0.000000   0.000000   0.000000  -0.061093
   61  O  3 YYX  -0.000000   0.135359   0.000000   0.000000  -0.000000
   62  O  3 YYZ   0.000000   0.000000   0.000000   0.000000  -0.089866
   63  O  3 ZZX  -0.000000  -0.069560   0.000000   0.000000  -0.000000
   64  O  3 ZZY   0.022231   0.000000   0.000000  -0.082988  -0.000000
   65  O  3 XYZ  -0.000000   0.000000  -0.121222   0.000000  -0.000000

                     31         32         33         34         35
                    3.1999     3.3215     3.3978     3.4732     3.6011
                     A          A          A          A          A   
    1  H  1  S   -0.000000   0.077956  -0.016463   0.000000  -0.066433
    2  H  1  S   -0.000000   0.793233  -0.581655   0.000000  -0.045225
    3  H  1  S   -0.000000   0.300171  -0.155751   0.000000   0.112158
    4  H  1  X    0.279323   0.000000  -0.000000  -0.865012   0.000000
    5  H  1  Y   -0.000000  -0.183775   0.624645   0.000000  -0.623588
    6  H  1  Z   -0.000000  -0.506847  -0.105144   0.000000   0.034838
    7  H  1  X   -0.066525   0.000000  -0.000000   0.508149   0.000000
    8  H  1  Y   -0.000000   0.658649  -0.780619   0.000000   0.490751
    9  H  1  Z   -0.000000   0.544838  -0.180983   0.000000   0.107949
   10  H  1 XX   -0.000000   0.030245  -0.161237   0.000000  -0.120097
   11  H  1 YY   -0.000000   0.387245   0.159904   0.000000  -0.174517
   12  H  1 ZZ   -0.000000  -0.417490   0.001333   0.000000   0.294615
   13  H  1 XY    0.423061   0.000000  -0.000000   0.135233   0.000000
   14  H  1 XZ   -0.375546   0.000000  -0.000000  -0.094740   0.000000
   15  H  1 YZ   -0.000000  -0.155602  -0.208023   0.000000   0.023251
   16  H  2  S   -0.000000  -0.077956  -0.016463   0.000000   0.066433
   17  H  2  S   -0.000000  -0.793233  -0.581655   0.000000   0.045225
   18  H  2  S   -0.000000  -0.300171  -0.155751   0.000000  -0.112158
   19  H  2  X    0.279323   0.000000  -0.000000   0.865012   0.000000
   20  H  2  Y   -0.000000  -0.183775  -0.624645   0.000000  -0.623588
   21  H  2  Z   -0.000000   0.506847  -0.105144   0.000000  -0.034838
   22  H  2  X   -0.066525   0.000000  -0.000000  -0.508149   0.000000
   23  H  2  Y   -0.000000   0.658649   0.780619   0.000000   0.490751
   24  H  2  Z   -0.000000  -0.544838  -0.180983   0.000000  -0.107949
   25  H  2 XX   -0.000000  -0.030245  -0.161237   0.000000   0.120097
   26  H  2 YY   -0.000000  -0.387245   0.159904   0.000000   0.174517
   27  H  2 ZZ   -0.000000   0.417490   0.001333   0.000000  -0.294615
   28  H  2 XY   -0.423061   0.000000  -0.000000   0.135233   0.000000
   29  H  2 XZ   -0.375546   0.000000  -0.000000   0.094740   0.000000
   30  H  2 YZ   -0.000000  -0.155602   0.208023   0.000000   0.023251
   31  O  3  S   -0.000000   0.000000   0.065674   0.000000  -0.000000
   32  O  3  S   -0.000000  -0.000000   0.013633   0.000000  -0.000000
   33  O  3  S   -0.000000  -0.000000  -0.111254   0.000000  -0.000000
   34  O  3  S   -0.000000   0.000000   1.462408   0.000000   0.000000
   35  O  3  X   -0.597161   0.000000  -0.000000   0.000000   0.000000
   36  O  3  Y   -0.000000  -0.309854   0.000000   0.000000  -0.752137
   37  O  3  Z   -0.000000   0.000000   0.660527   0.000000  -0.000000
   38  O  3  X    0.616169   0.000000  -0.000000   0.000000   0.000000
   39  O  3  Y   -0.000000   0.539123  -0.000000   0.000000   0.848137
   40  O  3  Z   -0.000000  -0.000000  -0.756522   0.000000   0.000000
   41  O  3  X   -0.326287   0.000000  -0.000000   0.000000   0.000000
   42  O  3  Y   -0.000000   0.971792  -0.000000   0.000000  -0.344960
   43  O  3  Z   -0.000000   0.000000  -0.112876   0.000000  -0.000000
   44  O  3 XX   -0.000000  -0.000000  -0.074555   0.000000  -0.000000
   45  O  3 YY   -0.000000   0.000000   0.092762   0.000000   0.000000
   46  O  3 ZZ   -0.000000  -0.000000  -0.018207   0.000000   0.000000
   47  O  3 XY   -0.000000   0.000000  -0.000000  -0.006483   0.000000
   48  O  3 XZ    0.018195   0.000000  -0.000000   0.000000   0.000000
   49  O  3 YZ   -0.000000  -0.045479   0.000000   0.000000  -0.088651
   50  O  3 XX   -0.000000   0.000000   0.023888   0.000000  -0.000000
   51  O  3 YY   -0.000000   0.000000   0.216030   0.000000  -0.000000
   52  O  3 ZZ   -0.000000  -0.000000  -0.239918   0.000000   0.000000
   53  O  3 XY   -0.000000   0.000000  -0.000000  -0.051189   0.000000
   54  O  3 XZ    0.324022   0.000000  -0.000000   0.000000   0.000000
   55  O  3 YZ   -0.000000  -0.567959   0.000000   0.000000   0.489762
   56  O  3 XXX  -0.070182   0.000000  -0.000000   0.000000   0.000000
   57  O  3 YYY  -0.000000   0.158207  -0.000000   0.000000  -0.112888
   58  O  3 ZZZ  -0.000000   0.000000  -0.023446   0.000000  -0.000000
   59  O  3 XXY  -0.000000  -0.065743  -0.000000   0.000000  -0.004428
   60  O  3 XXZ  -0.000000   0.000000   0.077986   0.000000   0.000000
   61  O  3 YYX  -0.003031   0.000000  -0.000000   0.000000   0.000000
   62  O  3 YYZ  -0.000000  -0.000000  -0.046530   0.000000   0.000000
   63  O  3 ZZX   0.097190   0.000000  -0.000000   0.000000   0.000000
   64  O  3 ZZY  -0.000000  -0.146514   0.000000   0.000000   0.155883
   65  O  3 XYZ  -0.000000   0.000000  -0.000000  -0.145949   0.000000

                     36         37         38         39         40
                    3.6052     3.6519     3.7106     3.7986     3.8679
                     A          A          A          A          A   
    1  H  1  S   -0.098550  -0.000000   0.105547   0.000000   0.189970
    2  H  1  S    0.336416  -0.000000  -0.274873   0.000000  -0.666728
    3  H  1  S   -0.057888  -0.000000  -0.032413   0.000000  -0.110618
    4  H  1  X   -0.000000   0.809759   0.000000  -0.062114   0.000000
    5  H  1  Y   -0.211359  -0.000000  -0.258039   0.000000   0.444725
    6  H  1  Z    0.784553  -0.000000   0.705710   0.000000   0.201018
    7  H  1  X   -0.000000  -0.695305   0.000000   0.363794   0.000000
    8  H  1  Y    0.221086  -0.000000   0.258333   0.000000  -0.735963
    9  H  1  Z   -0.659392  -0.000000  -0.638201   0.000000  -0.215389
   10  H  1 XX    0.033511  -0.000000  -0.070801   0.000000   0.151506
   11  H  1 YY    0.140846  -0.000000   0.452886   0.000000  -0.393995
   12  H  1 ZZ   -0.174356  -0.000000  -0.382084   0.000000   0.242489
   13  H  1 XY   -0.000000  -0.225047   0.000000   0.589441   0.000000
   14  H  1 XZ   -0.000000  -0.113669   0.000000   0.567968   0.000000
   15  H  1 YZ   -0.285355  -0.000000  -0.200045   0.000000  -0.358252
   16  H  2  S   -0.098550  -0.000000  -0.105547   0.000000   0.189970
   17  H  2  S    0.336416  -0.000000   0.274873   0.000000  -0.666728
   18  H  2  S   -0.057888  -0.000000   0.032413   0.000000  -0.110618
   19  H  2  X   -0.000000   0.809759   0.000000   0.062114   0.000000
   20  H  2  Y    0.211359  -0.000000  -0.258039   0.000000  -0.444725
   21  H  2  Z    0.784553  -0.000000  -0.705710   0.000000   0.201018
   22  H  2  X   -0.000000  -0.695305   0.000000  -0.363794   0.000000
   23  H  2  Y   -0.221086  -0.000000   0.258333   0.000000   0.735963
   24  H  2  Z   -0.659392  -0.000000   0.638201   0.000000  -0.215389
   25  H  2 XX    0.033511  -0.000000   0.070801   0.000000   0.151506
   26  H  2 YY    0.140846  -0.000000  -0.452886   0.000000  -0.393995
   27  H  2 ZZ   -0.174356  -0.000000   0.382084   0.000000   0.242489
   28  H  2 XY   -0.000000   0.225047   0.000000   0.589441   0.000000
   29  H  2 XZ   -0.000000  -0.113669   0.000000  -0.567968   0.000000
   30  H  2 YZ    0.285355  -0.000000  -0.200045   0.000000   0.358252
   31  O  3  S    0.073883  -0.000000   0.000000   0.000000   0.260672
   32  O  3  S    0.184794  -0.000000   0.000000   0.000000   0.542224
   33  O  3  S    0.067266  -0.000000   0.000000   0.000000   0.019235
   34  O  3  S   -0.357791  -0.000000   0.000000   0.000000   0.984381
   35  O  3  X   -0.000000   0.497610   0.000000   0.000000   0.000000
   36  O  3  Y   -0.000000  -0.000000   0.083001   0.000000   0.000000
   37  O  3  Z    0.332514  -0.000000   0.000000   0.000000  -0.650281
   38  O  3  X   -0.000000  -0.523731   0.000000   0.000000   0.000000
   39  O  3  Y    0.000000  -0.000000   0.008999   0.000000  -0.000000
   40  O  3  Z   -0.344328  -0.000000  -0.000000   0.000000   0.449419
   41  O  3  X   -0.000000   0.686717   0.000000   0.000000   0.000000
   42  O  3  Y   -0.000000  -0.000000  -0.544789   0.000000   0.000000
   43  O  3  Z    0.717047  -0.000000   0.000000   0.000000  -0.606704
   44  O  3 XX    0.018967  -0.000000   0.000000   0.000000   0.017998
   45  O  3 YY   -0.010562  -0.000000   0.000000   0.000000  -0.029636
   46  O  3 ZZ   -0.008405  -0.000000   0.000000   0.000000   0.011639
   47  O  3 XY   -0.000000  -0.000000   0.000000  -0.027220   0.000000
   48  O  3 XZ   -0.000000  -0.014640   0.000000   0.000000   0.000000
   49  O  3 YZ   -0.000000  -0.000000   0.071007   0.000000   0.000000
   50  O  3 XX    0.109211  -0.000000   0.000000   0.000000   0.030808
   51  O  3 YY    0.121871  -0.000000   0.000000   0.000000  -0.132255
   52  O  3 ZZ   -0.231082  -0.000000  -0.000000   0.000000   0.101448
   53  O  3 XY   -0.000000  -0.000000   0.000000   0.865113   0.000000
   54  O  3 XZ   -0.000000  -0.147515   0.000000   0.000000   0.000000
   55  O  3 YZ    0.000000  -0.000000  -0.334636   0.000000  -0.000000
   56  O  3 XXX  -0.000000  -0.113112   0.000000   0.000000   0.000000
   57  O  3 YYY  -0.000000  -0.000000  -0.042116   0.000000   0.000000
   58  O  3 ZZZ   0.026172  -0.000000   0.000000   0.000000   0.143266
   59  O  3 XXY  -0.000000  -0.000000  -0.004669   0.000000   0.000000
   60  O  3 XXZ  -0.013453  -0.000000   0.000000   0.000000   0.158468
   61  O  3 YYX  -0.000000   0.144157   0.000000   0.000000   0.000000
   62  O  3 YYZ  -0.021660  -0.000000   0.000000   0.000000  -0.350679
   63  O  3 ZZX  -0.000000   0.007599   0.000000   0.000000   0.000000
   64  O  3 ZZY   0.000000  -0.000000   0.061174   0.000000   0.000000
   65  O  3 XYZ  -0.000000  -0.000000   0.000000   0.180938   0.000000

                     41         42         43         44         45
                    3.9098     4.0985     4.2929     4.5848     5.1265
                     A          A          A          A          A   
    1  H  1  S   -0.000000   0.315255  -0.009231   0.345881  -0.246175
    2  H  1  S   -0.000000  -1.505200  -1.728965  -2.387265   1.931310
    3  H  1  S   -0.000000  -0.311417  -0.123534  -0.164857   0.091244
    4  H  1  X    0.132366  -0.000000  -0.000000   0.000000  -0.000000
    5  H  1  Y   -0.000000   0.283120  -0.299135  -0.036212   0.193261
    6  H  1  Z   -0.000000   0.206237  -0.424666  -0.079092   0.009133
    7  H  1  X   -0.266512  -0.000000  -0.000000   0.000000  -0.000000
    8  H  1  Y   -0.000000  -1.083352  -0.790174  -1.537813   1.086454
    9  H  1  Z   -0.000000  -0.706036  -0.570917  -0.358370   0.633123
   10  H  1 XX   -0.000000   0.533348   0.353620   0.364142  -0.186638
   11  H  1 YY   -0.000000  -0.522911   0.000175  -0.813674   0.420684
   12  H  1 ZZ   -0.000000  -0.010437  -0.353795   0.449532  -0.234046
   13  H  1 XY   -0.578889  -0.000000  -0.000000   0.000000  -0.000000
   14  H  1 XZ   -0.122113  -0.000000  -0.000000   0.000000  -0.000000
   15  H  1 YZ   -0.000000  -0.596600  -0.804757  -0.206301   0.512938
   16  H  2  S   -0.000000  -0.315255  -0.009231   0.345881   0.246175
   17  H  2  S   -0.000000   1.505200  -1.728965  -2.387265  -1.931310
   18  H  2  S   -0.000000   0.311417  -0.123534  -0.164857  -0.091244
   19  H  2  X    0.132366  -0.000000  -0.000000   0.000000  -0.000000
   20  H  2  Y   -0.000000   0.283120   0.299135   0.036212   0.193261
   21  H  2  Z   -0.000000  -0.206237  -0.424666  -0.079092  -0.009133
   22  H  2  X   -0.266512  -0.000000  -0.000000   0.000000  -0.000000
   23  H  2  Y   -0.000000  -1.083352   0.790174   1.537813   1.086454
   24  H  2  Z   -0.000000   0.706036  -0.570917  -0.358370  -0.633123
   25  H  2 XX   -0.000000  -0.533348   0.353620   0.364142   0.186638
   26  H  2 YY   -0.000000   0.522911   0.000175  -0.813674  -0.420684
   27  H  2 ZZ   -0.000000   0.010437  -0.353795   0.449532   0.234046
   28  H  2 XY    0.578889  -0.000000  -0.000000   0.000000  -0.000000
   29  H  2 XZ   -0.122113  -0.000000  -0.000000   0.000000  -0.000000
   30  H  2 YZ   -0.000000  -0.596600   0.804757   0.206301   0.512938
   31  O  3  S   -0.000000   0.000000  -0.190558  -0.091050   0.000000
   32  O  3  S   -0.000000  -0.000000   0.040142   0.184075   0.000000
   33  O  3  S   -0.000000  -0.000000   0.336783   0.305345  -0.000000
   34  O  3  S   -0.000000  -0.000000   3.044429   3.961594  -0.000000
   35  O  3  X   -0.808691  -0.000000  -0.000000   0.000000  -0.000000
   36  O  3  Y   -0.000000  -0.344333   0.000000  -0.000000  -0.605064
   37  O  3  Z   -0.000000  -0.000000  -0.040030   0.712257  -0.000000
   38  O  3  X    1.194281  -0.000000  -0.000000   0.000000  -0.000000
   39  O  3  Y   -0.000000  -0.844927  -0.000000   0.000000   2.128593
   40  O  3  Z   -0.000000   0.000000  -0.403987  -1.764606   0.000000
   41  O  3  X   -0.174686  -0.000000  -0.000000   0.000000  -0.000000
   42  O  3  Y   -0.000000  -1.272308   0.000000  -0.000000   1.111885
   43  O  3  Z   -0.000000   0.000000  -0.493965  -0.890000   0.000000
   44  O  3 XX   -0.000000  -0.000000   0.091082   0.075848  -0.000000
   45  O  3 YY   -0.000000   0.000000  -0.121687  -0.150828   0.000000
   46  O  3 ZZ   -0.000000  -0.000000   0.030605   0.074980  -0.000000
   47  O  3 XY   -0.000000  -0.000000  -0.000000   0.000000  -0.000000
   48  O  3 XZ    0.010214  -0.000000  -0.000000   0.000000  -0.000000
   49  O  3 YZ   -0.000000  -0.102626  -0.000000   0.000000   0.217201
   50  O  3 XX   -0.000000   0.000000  -0.743853  -0.677357   0.000000
   51  O  3 YY   -0.000000  -0.000000   1.578356   0.503386  -0.000000
   52  O  3 ZZ   -0.000000  -0.000000  -0.834503   0.173971  -0.000000
   53  O  3 XY   -0.000000  -0.000000  -0.000000   0.000000  -0.000000
   54  O  3 XZ   -0.320281  -0.000000  -0.000000   0.000000  -0.000000
   55  O  3 YZ   -0.000000   0.267795   0.000000   0.000000  -0.884167
   56  O  3 XXX   0.206914  -0.000000  -0.000000   0.000000  -0.000000
   57  O  3 YYY  -0.000000  -0.208752  -0.000000  -0.000000  -0.327893
   58  O  3 ZZZ  -0.000000  -0.000000  -0.084993   0.220071   0.000000
   59  O  3 XXY  -0.000000   0.356190  -0.000000   0.000000   0.708178
   60  O  3 XXZ  -0.000000  -0.000000   0.168169  -0.242569  -0.000000
   61  O  3 YYX  -0.202916  -0.000000  -0.000000   0.000000  -0.000000
   62  O  3 YYZ  -0.000000   0.000000  -0.054139  -0.052687  -0.000000
   63  O  3 ZZX  -0.074688  -0.000000  -0.000000   0.000000  -0.000000
   64  O  3 ZZY  -0.000000  -0.076120  -0.000000  -0.000000  -0.268263
   65  O  3 XYZ  -0.000000  -0.000000  -0.000000   0.000000  -0.000000

                     46         47         48         49         50
                    5.1767     5.2502     5.8419     6.0607     6.2191
                     A          A          A          A          A   
    1  H  1  S   -0.000000   0.084712  -0.000000   0.000000   0.252236
    2  H  1  S   -0.000000  -0.344756  -0.000000   0.000000  -0.060514
    3  H  1  S   -0.000000  -0.017553  -0.000000   0.000000   0.071032
    4  H  1  X   -0.018103  -0.000000  -0.190650  -0.177276   0.000000
    5  H  1  Y   -0.000000  -0.010653  -0.000000   0.000000   0.390776
    6  H  1  Z   -0.000000   0.079353  -0.000000   0.000000   0.162714
    7  H  1  X   -0.021950  -0.000000  -0.063534  -0.098568   0.000000
    8  H  1  Y   -0.000000  -0.257813  -0.000000   0.000000  -0.163908
    9  H  1  Z   -0.000000   0.029653  -0.000000   0.000000  -0.083689
   10  H  1 XX   -0.000000   0.161091  -0.000000   0.000000   0.037261
   11  H  1 YY   -0.000000  -0.276646  -0.000000   0.000000   0.096054
   12  H  1 ZZ   -0.000000   0.115555  -0.000000   0.000000  -0.133315
   13  H  1 XY   -0.135668  -0.000000  -0.402746  -0.320248   0.000000
   14  H  1 XZ    0.118571  -0.000000  -0.094777  -0.277542   0.000000
   15  H  1 YZ   -0.000000   0.187894  -0.000000   0.000000   0.053445
   16  H  2  S   -0.000000   0.084712  -0.000000   0.000000   0.252236
   17  H  2  S   -0.000000  -0.344756  -0.000000   0.000000  -0.060514
   18  H  2  S   -0.000000  -0.017553  -0.000000   0.000000   0.071032
   19  H  2  X   -0.018103  -0.000000   0.190650  -0.177276   0.000000
   20  H  2  Y   -0.000000   0.010653  -0.000000   0.000000  -0.390776
   21  H  2  Z   -0.000000   0.079353  -0.000000   0.000000   0.162714
   22  H  2  X   -0.021950  -0.000000   0.063534  -0.098568   0.000000
   23  H  2  Y   -0.000000   0.257813  -0.000000   0.000000   0.163908
   24  H  2  Z   -0.000000   0.029653  -0.000000   0.000000  -0.083689
   25  H  2 XX   -0.000000   0.161091  -0.000000   0.000000   0.037261
   26  H  2 YY   -0.000000  -0.276646  -0.000000   0.000000   0.096054
   27  H  2 ZZ   -0.000000   0.115555  -0.000000   0.000000  -0.133315
   28  H  2 XY    0.135668  -0.000000  -0.402746   0.320248   0.000000
   29  H  2 XZ    0.118571  -0.000000   0.094777  -0.277542   0.000000
   30  H  2 YZ   -0.000000  -0.187894  -0.000000   0.000000  -0.053445
   31  O  3  S   -0.000000  -0.000019  -0.000000   0.000000   0.673607
   32  O  3  S   -0.000000   0.026447  -0.000000   0.000000   0.827939
   33  O  3  S   -0.000000   0.019461  -0.000000   0.000000  -0.649293
   34  O  3  S   -0.000000   0.534651  -0.000000   0.000000  -0.497337
   35  O  3  X   -0.050075  -0.000000  -0.000000  -0.209223   0.000000
   36  O  3  Y   -0.000000  -0.000000  -0.000000   0.000000   0.000000
   37  O  3  Z   -0.000000   0.197006  -0.000000   0.000000  -0.156473
   38  O  3  X    0.094173  -0.000000  -0.000000   0.412374   0.000000
   39  O  3  Y   -0.000000   0.000000  -0.000000   0.000000  -0.000000
   40  O  3  Z   -0.000000  -0.424436  -0.000000   0.000000   0.305960
   41  O  3  X    0.001799  -0.000000  -0.000000   0.064239   0.000000
   42  O  3  Y   -0.000000   0.000000  -0.000000   0.000000  -0.000000
   43  O  3  Z   -0.000000  -0.187516  -0.000000   0.000000  -0.019973
   44  O  3 XX   -0.000000  -0.084295  -0.000000   0.000000   0.702305
   45  O  3 YY   -0.000000  -0.074269  -0.000000   0.000000  -0.319142
   46  O  3 ZZ   -0.000000   0.158564  -0.000000   0.000000  -0.383163
   47  O  3 XY   -0.000000  -0.000000  -0.524728   0.000000   0.000000
   48  O  3 XZ   -0.094476  -0.000000  -0.000000  -0.577835   0.000000
   49  O  3 YZ   -0.000000  -0.000000  -0.000000   0.000000  -0.000000
   50  O  3 XX   -0.000000  -0.056821  -0.000000   0.000000  -0.177968
   51  O  3 YY   -0.000000  -0.140914  -0.000000   0.000000  -0.071858
   52  O  3 ZZ   -0.000000   0.197736  -0.000000   0.000000   0.249826
   53  O  3 XY   -0.000000  -0.000000  -0.136568   0.000000   0.000000
   54  O  3 XZ   -0.029587  -0.000000  -0.000000   0.101033   0.000000
   55  O  3 YZ   -0.000000  -0.000000  -0.000000   0.000000   0.000000
   56  O  3 XXX  -0.650125  -0.000000  -0.000000  -0.666379   0.000000
   57  O  3 YYY  -0.000000  -0.000000  -0.000000   0.000000  -0.000000
   58  O  3 ZZZ  -0.000000  -0.805147  -0.000000   0.000000  -0.483608
   59  O  3 XXY  -0.000000   0.000000  -0.000000   0.000000   0.000000
   60  O  3 XXZ  -0.000000   0.985418  -0.000000   0.000000  -0.239954
   61  O  3 YYX  -0.215922  -0.000000  -0.000000   1.008228   0.000000
   62  O  3 YYZ  -0.000000   0.094799  -0.000000   0.000000   0.888782
   63  O  3 ZZX   1.088156  -0.000000  -0.000000  -0.114188   0.000000
   64  O  3 ZZY  -0.000000   0.000000  -0.000000   0.000000   0.000000
   65  O  3 XYZ  -0.000000  -0.000000   0.917989   0.000000   0.000000

                     51         52         53         54         55
                    6.3457     6.3950     6.4276     6.5821     6.8456
                     A          A          A          A          A   
    1  H  1  S   -0.000000  -0.011072  -0.087254   0.000000   0.270981
    2  H  1  S   -0.000000   0.468542  -0.705917   0.000000   2.089480
    3  H  1  S   -0.000000  -0.052089  -0.095243   0.000000   0.060529
    4  H  1  X   -0.084978   0.000000   0.000000   0.137232   0.000000
    5  H  1  Y   -0.000000   0.286602  -0.214600   0.000000   0.772371
    6  H  1  Z   -0.000000  -0.115177  -0.117096   0.000000   0.247946
    7  H  1  X   -0.238964   0.000000   0.000000   0.277787   0.000000
    8  H  1  Y   -0.000000   0.317398  -0.394578   0.000000   0.878666
    9  H  1  Z   -0.000000   0.032636   0.141376   0.000000   0.476118
   10  H  1 XX   -0.000000  -0.149262   0.089933   0.000000  -0.266170
   11  H  1 YY   -0.000000   0.529994  -0.210399   0.000000   0.428526
   12  H  1 ZZ   -0.000000  -0.380732   0.120466   0.000000  -0.162357
   13  H  1 XY   -0.301173   0.000000   0.000000   0.315083   0.000000
   14  H  1 XZ   -0.099410   0.000000   0.000000   0.168623   0.000000
   15  H  1 YZ   -0.000000  -0.079840   0.091209   0.000000   0.296022
   16  H  2  S   -0.000000   0.011072  -0.087254   0.000000  -0.270981
   17  H  2  S   -0.000000  -0.468542  -0.705917   0.000000  -2.089480
   18  H  2  S   -0.000000   0.052089  -0.095243   0.000000  -0.060529
   19  H  2  X   -0.084978   0.000000   0.000000  -0.137232   0.000000
   20  H  2  Y   -0.000000   0.286602   0.214600   0.000000   0.772371
   21  H  2  Z   -0.000000   0.115177  -0.117096   0.000000  -0.247946
   22  H  2  X   -0.238964   0.000000   0.000000  -0.277787   0.000000
   23  H  2  Y   -0.000000   0.317398   0.394578   0.000000   0.878666
   24  H  2  Z   -0.000000  -0.032636   0.141376   0.000000  -0.476118
   25  H  2 XX   -0.000000   0.149262   0.089933   0.000000   0.266170
   26  H  2 YY   -0.000000  -0.529994  -0.210399   0.000000  -0.428526
   27  H  2 ZZ   -0.000000   0.380732   0.120466   0.000000   0.162357
   28  H  2 XY    0.301173   0.000000   0.000000   0.315083   0.000000
   29  H  2 XZ   -0.099410   0.000000   0.000000  -0.168623   0.000000
   30  H  2 YZ   -0.000000  -0.079840  -0.091209   0.000000   0.296022
   31  O  3  S   -0.000000  -0.000000  -0.460979   0.000000   0.000000
   32  O  3  S   -0.000000  -0.000000  -0.618134   0.000000   0.000000
   33  O  3  S   -0.000000   0.000000   0.348906   0.000000  -0.000000
   34  O  3  S   -0.000000   0.000000   1.645838   0.000000  -0.000000
   35  O  3  X   -0.127871   0.000000   0.000000   0.000000   0.000000
   36  O  3  Y   -0.000000  -0.140028  -0.000000   0.000000  -0.856241
   37  O  3  Z   -0.000000   0.000000   0.198268   0.000000  -0.000000
   38  O  3  X    0.273608   0.000000   0.000000   0.000000   0.000000
   39  O  3  Y   -0.000000   0.671518   0.000000   0.000000   2.485595
   40  O  3  Z   -0.000000  -0.000000  -0.468826   0.000000   0.000000
   41  O  3  X    0.208687   0.000000   0.000000   0.000000   0.000000
   42  O  3  Y   -0.000000   0.015245   0.000000   0.000000   1.525455
   43  O  3  Z   -0.000000  -0.000000  -0.581118   0.000000   0.000000
   44  O  3 XX   -0.000000   0.000000   0.754405   0.000000  -0.000000
   45  O  3 YY   -0.000000   0.000000   0.220700   0.000000  -0.000000
   46  O  3 ZZ   -0.000000  -0.000000  -0.975105   0.000000   0.000000
   47  O  3 XY   -0.000000   0.000000   0.000000  -1.090918   0.000000
   48  O  3 XZ    1.023363   0.000000   0.000000   0.000000   0.000000
   49  O  3 YZ   -0.000000  -0.405459   0.000000   0.000000   0.699720
   50  O  3 XX   -0.000000  -0.000000  -0.729198   0.000000   0.000000
   51  O  3 YY   -0.000000   0.000000   0.056303   0.000000   0.000000
   52  O  3 ZZ   -0.000000   0.000000   0.672894   0.000000  -0.000000
   53  O  3 XY   -0.000000   0.000000   0.000000   1.092644   0.000000
   54  O  3 XZ   -0.760844   0.000000   0.000000   0.000000   0.000000
   55  O  3 YZ   -0.000000  -0.421881  -0.000000   0.000000  -1.792855
   56  O  3 XXX  -0.497123   0.000000   0.000000   0.000000   0.000000
   57  O  3 YYY  -0.000000  -0.771418   0.000000   0.000000   0.472714
   58  O  3 ZZZ  -0.000000   0.000000   0.204237   0.000000  -0.000000
   59  O  3 XXY  -0.000000  -0.067357  -0.000000   0.000000  -0.867940
   60  O  3 XXZ  -0.000000   0.000000   0.334627   0.000000  -0.000000
   61  O  3 YYX   0.621698   0.000000   0.000000   0.000000   0.000000
   62  O  3 YYZ  -0.000000  -0.000000  -0.608640   0.000000   0.000000
   63  O  3 ZZX   0.045262   0.000000   0.000000   0.000000   0.000000
   64  O  3 ZZY  -0.000000   1.102323  -0.000000   0.000000   0.233728
   65  O  3 XYZ  -0.000000   0.000000   0.000000  -0.562840   0.000000

                     56         57         58
                    7.0274     7.1830    10.2482
                     A          A          A   
    1  H  1  S   -0.295930  -0.073094   0.000117
    2  H  1  S   -0.641610   0.986923  -2.152500
    3  H  1  S   -0.074663  -0.059846   0.156717
    4  H  1  X    0.000000  -0.000000   0.000000
    5  H  1  Y   -0.202899   0.329775  -0.549508
    6  H  1  Z   -0.184341   0.302142  -0.315136
    7  H  1  X    0.000000  -0.000000   0.000000
    8  H  1  Y   -0.173080   0.477852  -1.143869
    9  H  1  Z   -0.222913   0.388924  -0.524812
   10  H  1 XX   -0.056066  -0.336847   0.391493
   11  H  1 YY    0.172794   0.232277  -0.537193
   12  H  1 ZZ   -0.116728   0.104570   0.145700
   13  H  1 XY    0.000000  -0.000000   0.000000
   14  H  1 XZ    0.000000  -0.000000   0.000000
   15  H  1 YZ   -0.016765   0.551763  -0.553852
   16  H  2  S   -0.295930   0.073094   0.000117
   17  H  2  S   -0.641610  -0.986923  -2.152500
   18  H  2  S   -0.074663   0.059846   0.156717
   19  H  2  X    0.000000  -0.000000   0.000000
   20  H  2  Y    0.202899   0.329775   0.549508
   21  H  2  Z   -0.184341  -0.302142  -0.315136
   22  H  2  X    0.000000  -0.000000   0.000000
   23  H  2  Y    0.173080   0.477852   1.143869
   24  H  2  Z   -0.222913  -0.388924  -0.524812
   25  H  2 XX   -0.056066   0.336847   0.391493
   26  H  2 YY    0.172794  -0.232277  -0.537193
   27  H  2 ZZ   -0.116728  -0.104570   0.145700
   28  H  2 XY    0.000000  -0.000000   0.000000
   29  H  2 XZ    0.000000  -0.000000   0.000000
   30  H  2 YZ    0.016765   0.551763   0.553852
   31  O  3  S   -0.198150  -0.000000   2.852166
   32  O  3  S   -0.385404  -0.000000   4.083973
   33  O  3  S   -0.063902  -0.000000  -2.669229
   34  O  3  S    1.596678   0.000000   1.674238
   35  O  3  X    0.000000  -0.000000   0.000000
   36  O  3  Y    0.000000  -0.478223   0.000000
   37  O  3  Z    0.116791   0.000000   0.335186
   38  O  3  X    0.000000  -0.000000   0.000000
   39  O  3  Y   -0.000000   1.784647  -0.000000
   40  O  3  Z   -0.176098  -0.000000  -1.325088
   41  O  3  X    0.000000  -0.000000   0.000000
   42  O  3  Y   -0.000000   0.256241  -0.000000
   43  O  3  Z   -0.306160  -0.000000  -0.565321
   44  O  3 XX    0.617658   0.000000  -0.031638
   45  O  3 YY   -1.187285  -0.000000   0.056449
   46  O  3 ZZ    0.569627   0.000000  -0.024811
   47  O  3 XY    0.000000  -0.000000   0.000000
   48  O  3 XZ    0.000000  -0.000000   0.000000
   49  O  3 YZ    0.000000  -0.925864   0.000000
   50  O  3 XX   -0.707217  -0.000000  -0.831316
   51  O  3 YY    1.332548   0.000000   1.154104
   52  O  3 ZZ   -0.625332  -0.000000  -0.322787
   53  O  3 XY    0.000000  -0.000000   0.000000
   54  O  3 XZ    0.000000  -0.000000   0.000000
   55  O  3 YZ   -0.000000   0.151791   0.000000
   56  O  3 XXX   0.000000  -0.000000   0.000000
   57  O  3 YYY  -0.000000   0.679401   0.000000
   58  O  3 ZZZ   0.294854   0.000000   0.348635
   59  O  3 XXY   0.000000  -0.402078   0.000000
   60  O  3 XXZ   0.107554   0.000000   0.228823
   61  O  3 YYX   0.000000  -0.000000   0.000000
   62  O  3 YYZ  -0.503141  -0.000000  -0.696565
   63  O  3 ZZX   0.000000  -0.000000   0.000000
   64  O  3 ZZY   0.000000  -0.509435   0.000000
   65  O  3 XYZ   0.000000  -0.000000   0.000000
 ...... END OF ROHF CALCULATION ......
 STEP CPU TIME =     0.24 TOTAL CPU TIME =        0.4 (    0.0 MIN)
 TOTAL WALL CLOCK TIME=        0.4 SECONDS, CPU UTILIZATION IS  97.30%

     ----------------------------------------------------------------
     PROPERTY VALUES FOR THE ROHF  SELF-CONSISTENT FIELD WAVEFUNCTION
     ----------------------------------------------------------------

          -----------------
          ENERGY COMPONENTS
          -----------------

         WAVEFUNCTION NORMALIZATION =       1.0000000000

                ONE ELECTRON ENERGY =    -116.0845924822
                TWO ELECTRON ENERGY =      32.6238856100
           NUCLEAR REPULSION ENERGY =       7.8375569539
                                      ------------------
                       TOTAL ENERGY =     -75.6231499182

 ELECTRON-ELECTRON POTENTIAL ENERGY =      32.6238856100
  NUCLEUS-ELECTRON POTENTIAL ENERGY =    -191.3207181961
   NUCLEUS-NUCLEUS POTENTIAL ENERGY =       7.8375569539
                                      ------------------
             TOTAL POTENTIAL ENERGY =    -150.8592756322
               TOTAL KINETIC ENERGY =      75.2361257140
                 VIRIAL RATIO (V/T) =       2.0051441272

          ---------------------------------------
          MULLIKEN AND LOWDIN POPULATION ANALYSES
          ---------------------------------------

     ATOMIC MULLIKEN POPULATION IN EACH MOLECULAR ORBITAL

                      1          2          3          4          5

                  2.000000   2.000000   2.000000   2.000000   1.000000

    1             0.000304   0.126223   0.325627   0.085820   0.007476
    2             0.000304   0.126223   0.325627   0.085820   0.007476
    3             1.999392   1.747554   1.348746   1.828361   0.985048

          MULLIKEN SPHERICAL HARMONIC POPULATIONS
       ATOM           S       P       D      F      G      H      I    TOTAL
    1 H             0.24    0.04    0.00   0.00   0.00   0.00   0.00    0.28
    2 H             0.24    0.04    0.00   0.00   0.00   0.00   0.00    0.28
    3 O             1.91    2.53    0.01   0.00   0.00   0.00   0.00    4.45

          MULLIKEN SPHERICAL HARMONIC POPULATIONS
       ATOM           S       P       D      F      G      H      I    TOTAL
    1 H             0.24    0.03    0.00   0.00   0.00   0.00   0.00    0.27
    2 H             0.24    0.03    0.00   0.00   0.00   0.00   0.00    0.27
    3 O             1.91    1.55    0.01   0.00   0.00   0.00   0.00    3.46

     ATOMIC SPIN POPULATION (ALPHA MINUS BETA)
       ATOM         MULL.POP.                    LOW.POP.
    1 H             0.007476                     0.027681
    2 H             0.007476                     0.027681
    3 O             0.985048                     0.944637

               ----- POPULATIONS IN EACH AO -----
                             MULLIKEN      LOWDIN
              1  H  1  S      0.16121     0.13453
              2  H  1  S      0.30291     0.18290
[...]
   59  O  3 XXY   0.000000   0.000000  -0.001342   0.000000   0.000000
   60  O  3 XXZ   0.000073   0.001178   0.000000  -0.000104   0.000000
   61  O  3 YYX   0.000000   0.000000   0.000000   0.000000   0.000988
   62  O  3 YYZ  -0.000156  -0.002638   0.000000  -0.002578   0.000000
   63  O  3 ZZX   0.000000   0.000000   0.000000   0.000000   0.004418
   64  O  3 ZZY   0.000000   0.000000  -0.000921   0.000000   0.000000
   65  O  3 XYZ   0.000000   0.000000   0.000000   0.000000   0.000000

                      6          7          8          9         10
                   -0.1663    -0.0828     0.1914     0.1934     0.2995
                     A          A          A          A          A   
    1  H  1  S    0.060561  -0.051387  -0.112718  -0.110718   0.000000
    2  H  1  S    0.264829  -0.272208  -1.302240  -1.368185   0.000000
    3  H  1  S    0.751835  -1.370419   0.675080   0.906617   0.000000
    4  H  1  X    0.000000   0.000000   0.000000   0.000000   0.010434
    5  H  1  Y   -0.008866   0.008599  -0.023409  -0.034869   0.000000
    6  H  1  Z   -0.002849   0.009132  -0.013340  -0.019190   0.000000
    7  H  1  X    0.000000   0.000000   0.000000   0.000000  -0.077527
    8  H  1  Y    0.055682  -0.065028   0.132271  -0.036056   0.000000
    9  H  1  Z    0.037574  -0.041749  -0.103001   0.086004   0.000000
   10  H  1 XX   -0.003871   0.003436   0.010139   0.004305   0.000000
   11  H  1 YY    0.002391  -0.006121   0.001085  -0.013232   0.000000
   12  H  1 ZZ    0.001480   0.002685  -0.011224   0.008927   0.000000
   13  H  1 XY    0.000000   0.000000   0.000000   0.000000   0.012649
   14  H  1 XZ    0.000000   0.000000   0.000000   0.000000   0.009656
   15  H  1 YZ    0.006593  -0.006328  -0.012168  -0.017041   0.000000
   16  H  2  S    0.060561   0.051387  -0.112718   0.110718   0.000000
   17  H  2  S    0.264829   0.272208  -1.302240   1.368185   0.000000
   18  H  2  S    0.751835   1.370419   0.675080  -0.906617   0.000000
   19  H  2  X    0.000000   0.000000   0.000000   0.000000   0.010434
   20  H  2  Y    0.008866   0.008599   0.023409  -0.034869   0.000000
   21  H  2  Z   -0.002849  -0.009132  -0.013340   0.019190   0.000000
   22  H  2  X    0.000000   0.000000   0.000000   0.000000  -0.077527
   23  H  2  Y   -0.055682  -0.065028  -0.132271  -0.036056   0.000000
   24  H  2  Z    0.037574   0.041749  -0.103001  -0.086004   0.000000
   25  H  2 XX   -0.003871  -0.003436   0.010139  -0.004305   0.000000
   26  H  2 YY    0.002391   0.006121   0.001085   0.013232   0.000000
   27  H  2 ZZ    0.001480  -0.002685  -0.011224  -0.008927   0.000000
   28  H  2 XY    0.000000   0.000000   0.000000   0.000000  -0.012649
   29  H  2 XZ    0.000000   0.000000   0.000000   0.000000   0.009656
   30  H  2 YZ   -0.006593  -0.006328   0.012168  -0.017041   0.000000
   31  O  3  S    0.002394   0.000000   0.019424   0.000000   0.000000
   32  O  3  S   -0.198667   0.000000   0.158307   0.000000   0.000000
   33  O  3  S   -0.065842   0.000000   0.025978   0.000000   0.000000
   34  O  3  S   -1.047425  -0.000000   0.591235   0.000000   0.000000
   35  O  3  X    0.000000   0.000000   0.000000   0.000000   0.260787
   36  O  3  Y    0.000000  -0.175240   0.000000  -0.106245   0.000000
   37  O  3  Z    0.101388  -0.000000  -0.082184  -0.000000   0.000000
   38  O  3  X    0.000000   0.000000   0.000000   0.000000   0.671408
   39  O  3  Y   -0.000000  -0.260725   0.000000  -0.239409   0.000000
   40  O  3  Z    0.181392   0.000000  -0.148296  -0.000000   0.000000
   41  O  3  X    0.000000   0.000000   0.000000   0.000000  -1.113767
   42  O  3  Y   -0.000000  -0.692433   0.000000  -0.905483   0.000000
   43  O  3  Z    0.292263   0.000000  -0.479012  -0.000000   0.000000
   44  O  3 XX   -0.008551   0.000000   0.020477   0.000000   0.000000
   45  O  3 YY    0.007319   0.000000  -0.026382  -0.000000   0.000000
   46  O  3 ZZ    0.001232   0.000000   0.005905   0.000000   0.000000
   47  O  3 XY    0.000000   0.000000   0.000000   0.000000   0.000000
   48  O  3 XZ    0.000000   0.000000   0.000000   0.000000  -0.006706
   49  O  3 YZ    0.000000  -0.005195   0.000000  -0.027523   0.000000
   50  O  3 XX    0.007021   0.000000   0.025928   0.000000   0.000000
   51  O  3 YY   -0.005969  -0.000000   0.001090  -0.000000   0.000000
   52  O  3 ZZ   -0.001052  -0.000000  -0.027017  -0.000000   0.000000
   53  O  3 XY    0.000000   0.000000   0.000000   0.000000   0.000000
   54  O  3 XZ    0.000000   0.000000   0.000000   0.000000   0.036342
   55  O  3 YZ    0.000000   0.031370  -0.000000   0.057606   0.000000
   56  O  3 XXX   0.000000   0.000000   0.000000   0.000000   0.008885
   57  O  3 YYY   0.000000  -0.000347   0.000000  -0.002586   0.000000
   58  O  3 ZZZ  -0.003503   0.000000   0.009293   0.000000   0.000000
   59  O  3 XXY   0.000000  -0.000835  -0.000000   0.009474   0.000000
   60  O  3 XXZ   0.000903   0.000000   0.000468   0.000000   0.000000
   61  O  3 YYX   0.000000   0.000000   0.000000   0.000000  -0.007252
   62  O  3 YYZ   0.003797   0.000000  -0.012937  -0.000000   0.000000
   63  O  3 ZZX   0.000000   0.000000   0.000000   0.000000  -0.004668
   64  O  3 ZZY   0.000000   0.001301   0.000000  -0.006005   0.000000
   65  O  3 XYZ   0.000000   0.000000   0.000000   0.000000   0.000000

                     11         12         13         14         15
                    0.3099     0.4464     0.4527     0.4771     0.5988
                     A          A          A          A          A   
    1  H  1  S   -0.046452  -0.047683   0.000000  -0.011460   0.000000
    2  H  1  S    1.756348   1.396137   0.000000   1.187605   0.000000
    3  H  1  S    0.493680   1.477531   0.000000  -0.207930   0.000000
    4  H  1  X    0.000000   0.000000   0.049662   0.000000  -0.064732
    5  H  1  Y    0.020194   0.038097   0.000000  -0.030896   0.000000
    6  H  1  Z    0.011808   0.023677   0.000000   0.037555   0.000000
    7  H  1  X    0.000000   0.000000  -0.784321   0.000000   0.953952
    8  H  1  Y    0.789083   0.791975   0.000000   0.677881   0.000000
    9  H  1  Z    0.531802   0.512460   0.000000  -0.618749   0.000000
   10  H  1 XX   -0.042373  -0.039950   0.000000  -0.018580   0.000000
   11  H  1 YY    0.046981   0.050064   0.000000   0.053326   0.000000
   12  H  1 ZZ   -0.004608  -0.010114   0.000000  -0.034747   0.000000
   13  H  1 XY    0.000000   0.000000  -0.014333   0.000000   0.036042
   14  H  1 XZ    0.000000   0.000000  -0.022041   0.000000  -0.001489
   15  H  1 YZ    0.054446   0.073710   0.000000  -0.025089   0.000000
   16  H  2  S   -0.046452   0.047683   0.000000  -0.011460   0.000000
   17  H  2  S    1.756348  -1.396137   0.000000   1.187605   0.000000
   18  H  2  S    0.493680  -1.477531   0.000000  -0.207930   0.000000
   19  H  2  X    0.000000   0.000000  -0.049662   0.000000  -0.064732
   20  H  2  Y   -0.020194   0.038097   0.000000   0.030896   0.000000
   21  H  2  Z    0.011808  -0.023677   0.000000   0.037555   0.000000
   22  H  2  X    0.000000   0.000000   0.784321   0.000000   0.953952
   23  H  2  Y   -0.789083   0.791975   0.000000  -0.677881   0.000000
   24  H  2  Z    0.531802  -0.512460   0.000000  -0.618749   0.000000
   25  H  2 XX   -0.042373   0.039950   0.000000  -0.018580   0.000000
   26  H  2 YY    0.046981  -0.050064   0.000000   0.053326   0.000000
   27  H  2 ZZ   -0.004608   0.010114   0.000000  -0.034747   0.000000
   28  H  2 XY    0.000000   0.000000  -0.014333   0.000000  -0.036042
   29  H  2 XZ    0.000000   0.000000   0.022041   0.000000  -0.001489
   30  H  2 YZ   -0.054446   0.073710   0.000000   0.025089   0.000000
   31  O  3  S   -0.018353   0.000000   0.000000  -0.040234   0.000000
   32  O  3  S   -0.044830   0.000000   0.000000  -0.174102   0.000000
   33  O  3  S    0.042691  -0.000000   0.000000  -0.030023   0.000000
   34  O  3  S   -3.741294   0.000000   0.000000  -1.153134   0.000000
   35  O  3  X    0.000000   0.000000   0.000000   0.000000  -0.006419
   36  O  3  Y    0.000000  -0.264287   0.000000  -0.000000   0.000000
   37  O  3  Z   -0.247164  -0.000000   0.000000   0.025971   0.000000
   38  O  3  X    0.000000   0.000000  -0.000000   0.000000   0.016486
   39  O  3  Y   -0.000000  -0.083424   0.000000  -0.000000   0.000000
   40  O  3  Z   -0.221520  -0.000000   0.000000   0.122167   0.000000
   41  O  3  X    0.000000   0.000000   0.000000   0.000000  -1.152454
   42  O  3  Y   -0.000000   2.931135   0.000000   0.000000   0.000000
   43  O  3  Z    2.220235  -0.000000   0.000000   1.592403   0.000000
   44  O  3 XX   -0.024141   0.000000   0.000000  -0.016955   0.000000
   45  O  3 YY    0.015578   0.000000   0.000000  -0.020077   0.000000
   46  O  3 ZZ    0.008564  -0.000000   0.000000   0.037032   0.000000
   47  O  3 XY    0.000000   0.000000   0.030486   0.000000   0.000000
   48  O  3 XZ    0.000000   0.000000   0.000000   0.000000  -0.024336
   49  O  3 YZ    0.000000   0.028655   0.000000   0.000000   0.000000
   50  O  3 XX    0.235160   0.000000   0.000000  -0.017426   0.000000
   51  O  3 YY   -0.212451  -0.000000   0.000000   0.070659   0.000000
   52  O  3 ZZ   -0.022709   0.000000   0.000000  -0.053233   0.000000
   53  O  3 XY    0.000000   0.000000   0.041269   0.000000   0.000000
   54  O  3 XZ    0.000000   0.000000   0.000000   0.000000  -0.103816
   55  O  3 YZ    0.000000  -0.373734   0.000000  -0.000000   0.000000
   56  O  3 XXX   0.000000   0.000000   0.000000   0.000000   0.010252
   57  O  3 YYY  -0.000000   0.008980   0.000000   0.000000   0.000000
   58  O  3 ZZZ  -0.012348   0.000000   0.000000   0.006757   0.000000
   59  O  3 XXY   0.000000  -0.032107   0.000000  -0.000000   0.000000
   60  O  3 XXZ  -0.020536   0.000000   0.000000  -0.008038   0.000000
   61  O  3 YYX   0.000000   0.000000   0.000000   0.000000  -0.014798
   62  O  3 YYZ   0.037103  -0.000000   0.000000  -0.001027   0.000000
   63  O  3 ZZX   0.000000   0.000000   0.000000   0.000000   0.001043
   64  O  3 ZZY  -0.000000   0.020058   0.000000   0.000000   0.000000
   65  O  3 XYZ   0.000000   0.000000   0.010661   0.000000   0.000000

     ----------------------------------------------------------------
     PROPERTY VALUES FOR THE ROHF  SELF-CONSISTENT FIELD WAVEFUNCTION
     ----------------------------------------------------------------

          -----------------
          ENERGY COMPONENTS
          -----------------

         WAVEFUNCTION NORMALIZATION =       1.0000000000

                ONE ELECTRON ENERGY =    -117.8059594463
                TWO ELECTRON ENERGY =      33.1871844335
           NUCLEAR REPULSION ENERGY =       8.9655672874
                                      ------------------
                       TOTAL ENERGY =     -75.6532077254

 ELECTRON-ELECTRON POTENTIAL ENERGY =      33.1871844335
  NUCLEUS-ELECTRON POTENTIAL ENERGY =    -193.4231905428
   NUCLEUS-NUCLEUS POTENTIAL ENERGY =       8.9655672874
                                      ------------------
             TOTAL POTENTIAL ENERGY =    -151.2704388219
               TOTAL KINETIC ENERGY =      75.6172310965
                 VIRIAL RATIO (V/T) =       2.0004757729

          ---------------------------------------
          MULLIKEN AND LOWDIN POPULATION ANALYSES
          ---------------------------------------

     ATOMIC MULLIKEN POPULATION IN EACH MOLECULAR ORBITAL

                      1          2          3          4          5

                  2.000000   2.000000   2.000000   2.000000   1.000000

    1             0.000345   0.193870   0.335250   0.101023   0.011350
    2             0.000345   0.193870   0.335250   0.101023   0.011350
    3             1.999310   1.612259   1.329499   1.797955   0.977300

          MULLIKEN SPHERICAL HARMONIC POPULATIONS
       ATOM           S       P       D      F      G      H      I    TOTAL
    1 H             0.28    0.04    0.00   0.00   0.00   0.00   0.00    0.33
    2 H             0.28    0.04    0.00   0.00   0.00   0.00   0.00    0.33
    3 O             1.88    2.45    0.01   0.00   0.00   0.00   0.00    4.35

          MULLIKEN SPHERICAL HARMONIC POPULATIONS
       ATOM           S       P       D      F      G      H      I    TOTAL
    1 H             0.28    0.03    0.00   0.00   0.00   0.00   0.00    0.32
    2 H             0.28    0.03    0.00   0.00   0.00   0.00   0.00    0.32
    3 O             1.88    1.48    0.01   0.00   0.00   0.00   0.00    3.37

     ATOMIC SPIN POPULATION (ALPHA MINUS BETA)
       ATOM         MULL.POP.                    LOW.POP.
    1 H             0.011350                     0.045315
    2 H             0.011350                     0.045315
    3 O             0.977300                     0.909369

               ----- POPULATIONS IN EACH AO -----
                             MULLIKEN      LOWDIN
              1  H  1  S      0.21882     0.17865
              2  H  1  S      0.33934     0.18379
              3  H  1  S      0.00295     0.06328
              4  H  1  X      0.00164     0.00334
              5  H  1  Y      0.01128     0.02258
              6  H  1  Z      0.00679     0.01427
              7  H  1  X      0.00837     0.03028
              8  H  1  Y      0.02586     0.06728
              9  H  1  Z      0.01967     0.07329
             10  H  1 XX      0.00139     0.05334
             11  H  1 YY      0.00152     0.10834
             12  H  1 ZZ      0.00092     0.07949
             13  H  1 XY      0.00041     0.00821
             14  H  1 XZ      0.00288     0.00348
             15  H  1 YZ      0.00000     0.02019
             16  H  2  S      0.21882     0.17865
             17  H  2  S      0.33934     0.18379
             18  H  2  S      0.00295     0.06328
             19  H  2  X      0.00164     0.00334
             20  H  2  Y      0.01128     0.02258
             21  H  2  Z      0.00679     0.01427
             22  H  2  X      0.00837     0.03028
             23  H  2  Y      0.02586     0.06728
             24  H  2  Z      0.01967     0.07329
             25  H  2 XX      0.00139     0.05334
             26  H  2 YY      0.00152     0.10834
             27  H  2 ZZ      0.00092     0.07949
             28  H  2 XY      0.00041     0.00821
             29  H  2 XZ      0.00288     0.00348
             30  H  2 YZ      0.00000     0.02019
             31  O  3  S      1.95011     1.56591
             32  O  3  S      1.07355     0.53828
             33  O  3  S      0.24984     0.36582
             34  O  3  S      0.49177     0.22545
             35  O  3  X      0.30611     0.27218
             36  O  3  Y      0.40752     0.33429
             37  O  3  Z      0.49890     0.42971
             38  O  3  X      0.49051     0.24422
             39  O  3  Y      0.69912     0.34065
             40  O  3  Z      0.82549     0.42533
             41  O  3  X      0.17967     0.14518
             42  O  3  Y      0.21051     0.22481
             43  O  3  Z      0.31551     0.30039
             44  O  3 XX      0.00025     0.13157
             45  O  3 YY      0.00046     0.12757
             46  O  3 ZZ      0.00000     0.12829
             47  O  3 XY      0.00012     0.00000
             48  O  3 XZ      0.00203     0.00009
             49  O  3 YZ      0.00000     0.00131
             50  O  3 XX      0.00166     0.10271
             51  O  3 YY      0.00161     0.10708
             52  O  3 ZZ      0.00000     0.10796
             53  O  3 XY      0.00089     0.00000
             54  O  3 XZ      0.01023     0.00000
             55  O  3 YZ      0.00000     0.01282
             56  O  3 XXX    -0.00001     0.13749
             57  O  3 YYY     0.00027     0.18451
             58  O  3 ZZZ     0.00001     0.21860
             59  O  3 XXY     0.00011     0.07766
             60  O  3 XXZ    -0.00003     0.10274
             61  O  3 YYX     0.00000     0.05404
             62  O  3 YYZ     0.00011     0.12087
             63  O  3 ZZX     0.00000     0.05616
             64  O  3 ZZY     0.00000     0.09668
             65  O  3 XYZ     0.00000    -0.00000

          ----- MULLIKEN ATOMIC OVERLAP POPULATIONS -----
          (OFF-DIAGONAL ELEMENTS NEED TO BE MULTIPLIED BY 2)

             1           2           3

    1    0.3368091
    2   -0.0097024   0.3368091
    3    0.3147318   0.3147318   7.0868594

          TOTAL MULLIKEN AND LOWDIN ATOMIC POPULATIONS
       ATOM         MULL.POP.    CHARGE          LOW.POP.     CHARGE
    1 H             0.641839    0.358161         0.909821    0.090179
    2 H             0.641839    0.358161         0.909821    0.090179
    3 O             7.716323    0.283677         7.180359    0.819641

          MULLIKEN SPHERICAL HARMONIC POPULATIONS
       ATOM           S       P       D      F      G      H      I    TOTAL
    1 H             0.56    0.07    0.01   0.00   0.00   0.00   0.00    0.64
    2 H             0.56    0.07    0.01   0.00   0.00   0.00   0.00    0.64
    3 O             3.77    3.93    0.02   0.00   0.00   0.00   0.00    7.72

          -------------------------------
          BOND ORDER AND VALENCE ANALYSIS     BOND ORDER THRESHOLD=0.050
          -------------------------------

                   BOND                       BOND                       BOND
  ATOM PAIR DIST  ORDER      ATOM PAIR DIST  ORDER      ATOM PAIR DIST  ORDER
    1   3  0.980  0.888        2   3  0.980  0.888

                       TOTAL       BONDED        FREE
      ATOM            VALENCE     VALENCE     VALENCE
    1 H                 0.903       0.903       0.000
    2 H                 0.903       0.903       0.000
    3 O                 2.731       1.776       0.955

          -----------------------------------------
          ATOMIC SPIN DENSITY AT THE NUCLEUS (A.U.)
          -----------------------------------------
                            SPIN DENS    ALPHA DENS     BETA DENS
    1  H            1.0     0.0000000       0.17307       0.17307
    2  H            1.0     0.0000000       0.17307       0.17307
    3  O            8.0     0.0000000     149.63138     149.63138

          ---------------------
          ELECTROSTATIC MOMENTS
          ---------------------

 POINT   1           X           Y           Z (BOHR)    CHARGE
                 0.000000   -0.000000    0.892884        1.00 (A.U.)
         DX          DY          DZ         /D/  (DEBYE)
    -0.000000    0.000000   -2.371991    2.371991
 ...... END OF PROPERTY EVALUATION ......
 STEP CPU TIME =     0.01 TOTAL CPU TIME =        5.9 (    0.1 MIN)
 TOTAL WALL CLOCK TIME=        5.9 SECONDS, CPU UTILIZATION IS  99.83%
  $VIB   
          IVIB=   0 IATOM=   0 ICOORD=   0 E=      -75.6532077254
  0.000000000E+00 0.000000000E+00 0.000000000E+00 0.000000000E+00 0.000000000E+00
  0.000000000E+00 0.000000000E+00 0.000000000E+00 0.000000000E+00
 -9.018544765E-17 1.544513908E-10-2.371990860E+00
 ......END OF GEOMETRY SEARCH......
 STEP CPU TIME =     0.00 TOTAL CPU TIME =        5.9 (    0.1 MIN)
 TOTAL WALL CLOCK TIME=        5.9 SECONDS, CPU UTILIZATION IS  99.83%
               977441  WORDS OF DYNAMIC MEMORY USED
 EXECUTION OF GAMESS TERMINATED NORMALLY Tue Mar  8 19:07:59 2016
 DDI: 263640 bytes (0.3 MB / 0 MWords) used by master data server.

 ----------------------------------------
 CPU timing information for all processes
 ========================================
 0: 5.654 + 0.255 = 5.910
 ----------------------------------------
 ddikick.x: exited gracefully.
----- accounting info -----
Files used on the master node Clevo were:
-rw-r--r-- 1 sagar sagar   194977 Mar  8 19:07 /tmp/H2O_ion_ROHF_ccpVTZ_geometry.dat
-rw-r--r-- 1 sagar sagar      201 Mar  8 19:07 /tmp/H2O_ion_ROHF_ccpVTZ_geometry.F05
-rw-r--r-- 1 sagar sagar 13141168 Mar  8 19:07 /tmp/H2O_ion_ROHF_ccpVTZ_geometry.F08
-rw-r--r-- 1 sagar sagar  2094080 Mar  8 19:07 /tmp/H2O_ion_ROHF_ccpVTZ_geometry.F10
Tue Mar  8 19:08:02 WET 2016
0.121u 0.052s 0:09.08 1.8%	0+0k 0+16io 0pf+0w
